 DBCSR| CPU Multiplication driver                                           XSMM
 DBCSR| Multrec recursion limit                                              512
 DBCSR| Multiplication stack size                                           1000
 DBCSR| Maximum elements for images                                    UNLIMITED
 DBCSR| Multiplicative factor virtual images                                   1
 DBCSR| Use multiplication densification                                       T
 DBCSR| Multiplication size stacks                                             3
 DBCSR| Number of 3D layers                                               SINGLE
 DBCSR| Use MPI memory allocation                                              T
 DBCSR| Use RMA algorithm                                                      F
 DBCSR| Use Communication thread                                               T
 DBCSR| Communication thread load                                             87


  **** **** ******  **  PROGRAM STARTED AT               2021-03-18 14:20:09.957
 ***** ** ***  *** **   PROGRAM STARTED ON                          ws55.ethz.ch
 **    ****   ******    PROGRAM STARTED BY                              steinmig
 ***** **    ** ** **   PROGRAM PROCESS ID                                 19931
  **** **  *******  **  PROGRAM STARTED IN /home/cds/steinmig/playground/cp2k-sp

 CP2K| version string:                    CP2K version 7.0 (Development Version)
 CP2K| source code revision number:                                  git:a515b01
 CP2K| cp2kflags: libint fftw3 libxc elpa parallel mpi3 scalapack xsmm spglib   
 CP2K| is freely available from                            https://www.cp2k.org/
 CP2K| Program compiled at                          Tue Nov 19 16:50:09 CET 2019
 CP2K| Program compiled on                                          ws44.ethz.ch
 CP2K| Program compiled for                                                local
 CP2K| Data directory path    /data/soft/centos7/qc/cp2k/dcce26e78c21e2aaa0d0cee
 CP2K| Input file name                                                   h2o.inp

 GLOBAL| Force Environment number                                              1
 GLOBAL| Basis set file name                                        BASIS_MOLOPT
 GLOBAL| Potential file name                                           POTENTIAL
 GLOBAL| MM Potential file name                                     MM_POTENTIAL
 GLOBAL| Coordinate file name                                         ../h2o.xyz
 GLOBAL| Method name                                                        CP2K
 GLOBAL| Project name                                   6035ff022d038122fd0579a4
 GLOBAL| Preferred FFT library                                             FFTW3
 GLOBAL| Preferred diagonalization lib.                                     ELPA
 GLOBAL| Run type                                                         ENERGY
 GLOBAL| All-to-all communication in single precision                          F
 GLOBAL| FFTs using library dependent lengths                                  T
 GLOBAL| Global print level                                               MEDIUM
 GLOBAL| MPI I/O enabled                                                       T
 GLOBAL| Total number of message passing processes                             1
 GLOBAL| Number of threads for this process                                    1
 GLOBAL| This output is from process                                           0
 GLOBAL| CPU model name                Intel(R) Xeon(R) CPU E3-1245 v5 @ 3.50GHz
 GLOBAL| CPUID                                                              1002

 MEMORY| system memory details [Kb]
 MEMORY|                        rank 0           min           max       average
 MEMORY| MemTotal             16211564      16211564      16211564      16211564
 MEMORY| MemFree               4344892       4344892       4344892       4344892
 MEMORY| Buffers                    12            12            12            12
 MEMORY| Cached                1266484       1266484       1266484       1266484
 MEMORY| Slab                   135480        135480        135480        135480
 MEMORY| SReclaimable            61032         61032         61032         61032
 MEMORY| MemLikelyFree         5672420       5672420       5672420       5672420


 *** Fundamental physical constants (SI units) ***

 *** Literature: B. J. Mohr and B. N. Taylor,
 ***             CODATA recommended values of the fundamental physical
 ***             constants: 2006, Web Version 5.1
 ***             http://physics.nist.gov/constants

 Speed of light in vacuum [m/s]                             2.99792458000000E+08
 Magnetic constant or permeability of vacuum [N/A**2]       1.25663706143592E-06
 Electric constant or permittivity of vacuum [F/m]          8.85418781762039E-12
 Planck constant (h) [J*s]                                  6.62606896000000E-34
 Planck constant (h-bar) [J*s]                              1.05457162825177E-34
 Elementary charge [C]                                      1.60217648700000E-19
 Electron mass [kg]                                         9.10938215000000E-31
 Electron g factor [ ]                                     -2.00231930436220E+00
 Proton mass [kg]                                           1.67262163700000E-27
 Fine-structure constant                                    7.29735253760000E-03
 Rydberg constant [1/m]                                     1.09737315685270E+07
 Avogadro constant [1/mol]                                  6.02214179000000E+23
 Boltzmann constant [J/K]                                   1.38065040000000E-23
 Atomic mass unit [kg]                                      1.66053878200000E-27
 Bohr radius [m]                                            5.29177208590000E-11

 *** Conversion factors ***

 [u] -> [a.u.]                                              1.82288848426455E+03
 [Angstrom] -> [Bohr] = [a.u.]                              1.88972613288564E+00
 [a.u.] = [Bohr] -> [Angstrom]                              5.29177208590000E-01
 [a.u.] -> [s]                                              2.41888432650478E-17
 [a.u.] -> [fs]                                             2.41888432650478E-02
 [a.u.] -> [J]                                              4.35974393937059E-18
 [a.u.] -> [N]                                              8.23872205491840E-08
 [a.u.] -> [K]                                              3.15774647902944E+05
 [a.u.] -> [kJ/mol]                                         2.62549961709828E+03
 [a.u.] -> [kcal/mol]                                       6.27509468713739E+02
 [a.u.] -> [Pa]                                             2.94210107994716E+13
 [a.u.] -> [bar]                                            2.94210107994716E+08
 [a.u.] -> [atm]                                            2.90362800883016E+08
 [a.u.] -> [eV]                                             2.72113838565563E+01
 [a.u.] -> [Hz]                                             6.57968392072181E+15
 [a.u.] -> [1/cm] (wave numbers)                            2.19474631370540E+05
 [a.u./Bohr**2] -> [1/cm]                                   5.14048714338585E+03
 

 CELL_TOP| Volume [angstrom^3]:                                         3376.468
 CELL_TOP| Vector a [angstrom    15.002     0.000     0.000    |a| =      15.002
 CELL_TOP| Vector b [angstrom     0.000    15.002     0.000    |b| =      15.002
 CELL_TOP| Vector c [angstrom     0.000     0.000    15.002    |c| =      15.002
 CELL_TOP| Angle (b,c), alpha [degree]:                                   90.000
 CELL_TOP| Angle (a,c), beta  [degree]:                                   90.000
 CELL_TOP| Angle (a,b), gamma [degree]:                                   90.000
 CELL_TOP| Numerically orthorhombic:                                         YES

 GENERATE|  Preliminary Number of Bonds generated:                             0
 GENERATE|  Achieved consistency in connectivity generation.

 CELL| Volume [angstrom^3]:                                             3376.468
 CELL| Vector a [angstrom]:      15.002     0.000     0.000    |a| =      15.002
 CELL| Vector b [angstrom]:       0.000    15.002     0.000    |b| =      15.002
 CELL| Vector c [angstrom]:       0.000     0.000    15.002    |c| =      15.002
 CELL| Angle (b,c), alpha [degree]:                                       90.000
 CELL| Angle (a,c), beta  [degree]:                                       90.000
 CELL| Angle (a,b), gamma [degree]:                                       90.000
 CELL| Numerically orthorhombic:                                             YES

 CELL_REF| Volume [angstrom^3]:                                         3376.468
 CELL_REF| Vector a [angstrom    15.002     0.000     0.000    |a| =      15.002
 CELL_REF| Vector b [angstrom     0.000    15.002     0.000    |b| =      15.002
 CELL_REF| Vector c [angstrom     0.000     0.000    15.002    |c| =      15.002
 CELL_REF| Angle (b,c), alpha [degree]:                                   90.000
 CELL_REF| Angle (a,c), beta  [degree]:                                   90.000
 CELL_REF| Angle (a,b), gamma [degree]:                                   90.000
 CELL_REF| Numerically orthorhombic:                                         YES

 *******************************************************************************
 *******************************************************************************
 **                                                                           **
 **     #####                         ##              ##                      **
 **    ##   ##            ##          ##              ##                      **
 **   ##     ##                       ##            ######                    **
 **   ##     ##  ##   ##  ##   #####  ##  ##   ####   ##    #####    #####    **
 **   ##     ##  ##   ##  ##  ##      ## ##   ##      ##   ##   ##  ##   ##   **
 **   ##  ## ##  ##   ##  ##  ##      ####     ###    ##   ######   ######    **
 **    ##  ###   ##   ##  ##  ##      ## ##      ##   ##   ##       ##        **
 **     #######   #####   ##   #####  ##  ##  ####    ##    #####   ##        **
 **           ##                                                    ##        **
 **                                                                           **
 **                                                ... make the atoms dance   **
 **                                                                           **
 **            Copyright (C) by CP2K developers group (2000 - 2019)           **
 **                                                                           **
 *******************************************************************************

 DFT| Spin restricted Kohn-Sham (RKS) calculation                            RKS
 DFT| Multiplicity                                                             1
 DFT| Number of spin states                                                    1
 DFT| Charge                                                                   0
 DFT| Self-interaction correction (SIC)                                       NO
 DFT| Cutoffs: density                                              1.000000E-10
 DFT|          gradient                                             1.000000E-10
 DFT|          tau                                                  1.000000E-10
 DFT|          cutoff_smoothing_range                               0.000000E+00
 DFT| XC density smoothing                                                  NONE
 DFT| XC derivatives                                                          PW
 FUNCTIONAL| ROUTINE=NEW
 FUNCTIONAL| PBE:
 FUNCTIONAL| J.P.Perdew, K.Burke, M.Ernzerhof, Phys. Rev. Letter, vol. 77, n 18,
 FUNCTIONAL|  pp. 3865-3868, (1996){spin unpolarized}                           

 QS| Method:                                                                 GPW
 QS| Density plane wave grid type                        NON-SPHERICAL FULLSPACE
 QS| Number of grid levels:                                                    4
 QS| Density cutoff [a.u.]:                                                140.0
 QS| Multi grid cutoff [a.u.]: 1) grid level                               140.0
 QS|                           2) grid level                                46.7
 QS|                           3) grid level                                15.6
 QS|                           4) grid level                                 5.2
 QS| Grid level progression factor:                                          3.0
 QS| Relative density cutoff [a.u.]:                                        20.0
 QS| Consistent realspace mapping and integration 
 QS| Interaction thresholds: eps_pgf_orb:                                1.0E-05
 QS|                         eps_filter_matrix:                          0.0E+00
 QS|                         eps_core_charge:                            1.0E-12
 QS|                         eps_rho_gspace:                             1.0E-10
 QS|                         eps_rho_rspace:                             1.0E-10
 QS|                         eps_gvg_rspace:                             1.0E-05
 QS|                         eps_ppl:                                    1.0E-02
 QS|                         eps_ppnl:                                   1.0E-07


 ATOMIC KIND INFORMATION

  1. Atomic kind: O                                     Number of atoms:       1

     Orbital Basis Set                                           DZVP-MOLOPT-GTH

       Number of orbital shell sets:                                           1
       Number of orbital shells:                                               5
       Number of primitive Cartesian functions:                                7
       Number of Cartesian basis functions:                                   14
       Number of spherical basis functions:                                   13
       Norm type:                                                              2

       Normalised Cartesian orbitals:

                        Set   Shell   Orbital            Exponent    Coefficient

                          1       1    2s               12.015955      -0.284499
                                                         5.108150      -0.322498
                                                         2.048398       0.148191
                                                         0.832382       0.295475
                                                         0.352316       0.150829
                                                         0.142977       0.015788
                                                         0.046761      -0.000019

                          1       2    3s               12.015955       0.725622
                                                         5.108150       0.644384
                                                         2.048398      -0.157350
                                                         0.832382      -0.853528
                                                         0.352316       0.146068
                                                         0.142977       0.153978
                                                         0.046761       0.000658

                          1       3    3px              12.015955       1.192141
                                                         5.108150       1.354170
                                                         2.048398       0.897267
                                                         0.832382       0.408839
                                                         0.352316       0.116648
                                                         0.142977       0.022184
                                                         0.046761       0.000308
                          1       3    3py              12.015955       1.192141
                                                         5.108150       1.354170
                                                         2.048398       0.897267
                                                         0.832382       0.408839
                                                         0.352316       0.116648
                                                         0.142977       0.022184
                                                         0.046761       0.000308
                          1       3    3pz              12.015955       1.192141
                                                         5.108150       1.354170
                                                         2.048398       0.897267
                                                         0.832382       0.408839
                                                         0.352316       0.116648
                                                         0.142977       0.022184
                                                         0.046761       0.000308

                          1       4    4px              12.015955      -1.062381
                                                         5.108150      -1.285791
                                                         2.048398      -0.727000
                                                         0.832382      -0.522764
                                                         0.352316       0.182681
                                                         0.142977       0.087560
                                                         0.046761       0.000981
                          1       4    4py              12.015955      -1.062381
                                                         5.108150      -1.285791
                                                         2.048398      -0.727000
                                                         0.832382      -0.522764
                                                         0.352316       0.182681
                                                         0.142977       0.087560
                                                         0.046761       0.000981
                          1       4    4pz              12.015955      -1.062381
                                                         5.108150      -1.285791
                                                         2.048398      -0.727000
                                                         0.832382      -0.522764
                                                         0.352316       0.182681
                                                         0.142977       0.087560
                                                         0.046761       0.000981

                          1       5    4dx2             12.015955       1.125955
                                                         5.108150       1.160468
                                                         2.048398       0.999335
                                                         0.832382       0.756334
                                                         0.352316       0.048604
                                                         0.142977       0.010378
                                                         0.046761      -0.000027
                          1       5    4dxy             12.015955       1.950212
                                                         5.108150       2.009990
                                                         2.048398       1.730899
                                                         0.832382       1.310009
                                                         0.352316       0.084185
                                                         0.142977       0.017974
                                                         0.046761      -0.000046
                          1       5    4dxz             12.015955       1.950212
                                                         5.108150       2.009990
                                                         2.048398       1.730899
                                                         0.832382       1.310009
                                                         0.352316       0.084185
                                                         0.142977       0.017974
                                                         0.046761      -0.000046
                          1       5    4dy2             12.015955       1.125955
                                                         5.108150       1.160468
                                                         2.048398       0.999335
                                                         0.832382       0.756334
                                                         0.352316       0.048604
                                                         0.142977       0.010378
                                                         0.046761      -0.000027
                          1       5    4dyz             12.015955       1.950212
                                                         5.108150       2.009990
                                                         2.048398       1.730899
                                                         0.832382       1.310009
                                                         0.352316       0.084185
                                                         0.142977       0.017974
                                                         0.046761      -0.000046
                          1       5    4dz2             12.015955       1.125955
                                                         5.108150       1.160468
                                                         2.048398       0.999335
                                                         0.832382       0.756334
                                                         0.352316       0.048604
                                                         0.142977       0.010378
                                                         0.046761      -0.000027

     GTH Potential information for                                       GTH-PBE

       Description:                       Goedecker-Teter-Hutter pseudopotential
                                           Goedecker et al., PRB 54, 1703 (1996)
                                          Hartwigsen et al., PRB 58, 3641 (1998)
                                                      Krack, TCA 114, 145 (2005)

       Gaussian exponent of the core charge distribution:               8.360253
       Electronic configuration (s p d ...):                               2   4

       Parameters of the local part of the GTH pseudopotential:

                          rloc        C1          C2          C3          C4
                        0.244554  -16.667215    2.487311

       Parameters of the non-local part of the GTH pseudopotential:

                   l      r(l)      h(i,j,l)

                   0    0.220956   18.337458
                   1    0.211332

  2. Atomic kind: H                                     Number of atoms:       2

     Orbital Basis Set                                           DZVP-MOLOPT-GTH

       Number of orbital shell sets:                                           1
       Number of orbital shells:                                               3
       Number of primitive Cartesian functions:                                7
       Number of Cartesian basis functions:                                    5
       Number of spherical basis functions:                                    5
       Norm type:                                                              2

       Normalised Cartesian orbitals:

                        Set   Shell   Orbital            Exponent    Coefficient

                          1       1    2s               11.478000       0.129129
                                                         3.700759       0.177012
                                                         1.446884       0.141285
                                                         0.716815       0.245670
                                                         0.247919       0.094768
                                                         0.066918       0.004062
                                                         0.021708      -0.000053

                          1       2    3s               11.478000      -0.079256
                                                         3.700759      -0.152992
                                                         1.446884       0.015066
                                                         0.716815      -0.331234
                                                         0.247919       0.210690
                                                         0.066918       0.058630
                                                         0.021708      -0.003429

                          1       3    3px              11.478000       0.325290
                                                         3.700759       0.187466
                                                         1.446884       0.443300
                                                         0.716815       0.267738
                                                         0.247919       0.088285
                                                         0.066918       0.019092
                                                         0.021708       0.000629
                          1       3    3py              11.478000       0.325290
                                                         3.700759       0.187466
                                                         1.446884       0.443300
                                                         0.716815       0.267738
                                                         0.247919       0.088285
                                                         0.066918       0.019092
                                                         0.021708       0.000629
                          1       3    3pz              11.478000       0.325290
                                                         3.700759       0.187466
                                                         1.446884       0.443300
                                                         0.716815       0.267738
                                                         0.247919       0.088285
                                                         0.066918       0.019092
                                                         0.021708       0.000629

     GTH Potential information for                                       GTH-PBE

       Description:                       Goedecker-Teter-Hutter pseudopotential
                                           Goedecker et al., PRB 54, 1703 (1996)
                                          Hartwigsen et al., PRB 58, 3641 (1998)
                                                      Krack, TCA 114, 145 (2005)

       Gaussian exponent of the core charge distribution:              12.500000
       Electronic configuration (s p d ...):                                   1

       Parameters of the local part of the GTH pseudopotential:

                          rloc        C1          C2          C3          C4
                        0.200000   -4.178900    0.724463


 MOLECULE KIND INFORMATION


 All atoms are their own molecule, skipping detailed information


 TOTAL NUMBERS AND MAXIMUM NUMBERS

  Total number of            - Atomic kinds:                                   2
                             - Atoms:                                          3
                             - Shell sets:                                     3
                             - Shells:                                        11
                             - Primitive Cartesian functions:                 21
                             - Cartesian basis functions:                     24
                             - Spherical basis functions:                     23

  Maximum angular momentum of- Orbital basis functions:                        2
                             - Local part of the GTH pseudopotential:          2
                             - Non-local part of the GTH pseudopotential:      0


 MODULE QUICKSTEP:  ATOMIC COORDINATES IN angstrom

  Atom  Kind  Element       X           Y           Z          Z(eff)       Mass

       1     1 O    8    7.145737    7.041587    7.501087      6.00      15.9994
       2     2 H    1    8.095737    7.041587    7.501087      1.00       1.0079
       3     2 H    1    6.906437    7.960587    7.501087      1.00       1.0079



 Molecular Symmetry Information        Point Group:                           Cs
                                       Group Order:                            2

 Atomic Coordinates [Bohr] in Standard Orientation

  Atom  Kind  Element       X           Y           Z      Atomic-No.    Mass

     1    1   O         -0.000101   -0.122830    0.000000       8      15.9994
     2    2   H          1.420927    0.974241    0.000000       1       1.0079
     3    2   H         -1.419323    0.975482    0.000000       1       1.0079

  Group Number:      1   Group Members:    1
                     2                     2
                     3                     3

                       Symmetry Elements         X            Y            Z
                           1    1  E          0.000000     0.000000     0.000000
                           2    1  @          0.000000     0.000000     1.000000

                       Moments of the Molecular Inertia Tensor
                                       Ix                Iy                Iz
                        Ix           2.86985           0.00000          -0.00000
                        Iy           0.92310           3.35288           0.00000
                        Iz          -0.00000          -0.00000           6.22272

                       Principal Moments and Axes of Inertia
                                     2.15719           4.06554           6.22272
                                     0.79155           0.61110          -0.00000
                                    -0.61110           0.79155          -0.00000
                                    -0.00000           0.00000           1.00000


 SCF PARAMETERS         Density guess:                                    ATOMIC
                        --------------------------------------------------------
                        max_scf:                                              50
                        max_scf_history:                                       0
                        max_diis:                                              4
                        --------------------------------------------------------
                        eps_scf:                                        1.00E-05
                        eps_scf_history:                                0.00E+00
                        eps_diis:                                       1.00E-01
                        eps_eigval:                                     1.00E-05
                        --------------------------------------------------------
                        level_shift [a.u.]:                                 0.00
                        --------------------------------------------------------
                        Mixing method:                           DIRECT_P_MIXING
                        --------------------------------------------------------
                        No outer SCF

 PW_GRID| Information for grid number                                          1
 PW_GRID| Cutoff [a.u.]                                                    140.0
 PW_GRID| spherical cutoff:                                                   NO
 PW_GRID|   Bounds   1            -77      76                Points:         154
 PW_GRID|   Bounds   2            -77      76                Points:         154
 PW_GRID|   Bounds   3            -77      76                Points:         154
 PW_GRID| Volume element (a.u.^3)  0.6239E-02     Volume (a.u.^3)     22785.5331
 PW_GRID| Grid span                                                    FULLSPACE

 PW_GRID| Information for grid number                                          2
 PW_GRID| Cutoff [a.u.]                                                     46.7
 PW_GRID| spherical cutoff:                                                   NO
 PW_GRID|   Bounds   1            -44      43                Points:          88
 PW_GRID|   Bounds   2            -44      43                Points:          88
 PW_GRID|   Bounds   3            -44      43                Points:          88
 PW_GRID| Volume element (a.u.^3)  0.3344E-01     Volume (a.u.^3)     22785.5331
 PW_GRID| Grid span                                                    FULLSPACE

 PW_GRID| Information for grid number                                          3
 PW_GRID| Cutoff [a.u.]                                                     15.6
 PW_GRID| spherical cutoff:                                                   NO
 PW_GRID|   Bounds   1            -27      26                Points:          54
 PW_GRID|   Bounds   2            -27      26                Points:          54
 PW_GRID|   Bounds   3            -27      26                Points:          54
 PW_GRID| Volume element (a.u.^3)  0.1447         Volume (a.u.^3)     22785.5331
 PW_GRID| Grid span                                                    FULLSPACE

 PW_GRID| Information for grid number                                          4
 PW_GRID| Cutoff [a.u.]                                                      5.2
 PW_GRID| spherical cutoff:                                                   NO
 PW_GRID|   Bounds   1            -15      14                Points:          30
 PW_GRID|   Bounds   2            -15      14                Points:          30
 PW_GRID|   Bounds   3            -15      14                Points:          30
 PW_GRID| Volume element (a.u.^3)  0.8439         Volume (a.u.^3)     22785.5331
 PW_GRID| Grid span                                                    FULLSPACE

 POISSON| Solver                                                        PERIODIC
 POISSON| Periodicity                                                        XYZ

 RS_GRID| Information for grid number                                          1
 RS_GRID|   Bounds   1            -77      76                Points:         154
 RS_GRID|   Bounds   2            -77      76                Points:         154
 RS_GRID|   Bounds   3            -77      76                Points:         154

 RS_GRID| Information for grid number                                          2
 RS_GRID|   Bounds   1            -44      43                Points:          88
 RS_GRID|   Bounds   2            -44      43                Points:          88
 RS_GRID|   Bounds   3            -44      43                Points:          88

 RS_GRID| Information for grid number                                          3
 RS_GRID|   Bounds   1            -27      26                Points:          54
 RS_GRID|   Bounds   2            -27      26                Points:          54
 RS_GRID|   Bounds   3            -27      26                Points:          54

 RS_GRID| Information for grid number                                          4
 RS_GRID|   Bounds   1            -15      14                Points:          30
 RS_GRID|   Bounds   2            -15      14                Points:          30
 RS_GRID|   Bounds   3            -15      14                Points:          30


 OVERLAP MATRIX

                                1            2            3            4
     1    1  O     2s        1.000000    -0.088209     0.000000     0.000000
     2    1  O     3s       -0.088209     1.000000    -0.000000    -0.000000
     3    1  O     3py       0.000000    -0.000000     1.000000    -0.000000
     4    1  O     3pz       0.000000    -0.000000    -0.000000     1.000000
     5    1  O     3px       0.000000     0.000000     0.000000     0.000000
     6    1  O     4py       0.000000     0.000000     0.176540     0.000000
     7    1  O     4pz       0.000000     0.000000     0.000000     0.176540
     8    1  O     4px       0.000000     0.000000     0.000000     0.000000
     9    1  O     4d-2      0.000000     0.000000     0.000000     0.000000
    10    1  O     4d-1      0.000000    -0.000000     0.000000     0.000000
    11    1  O     4d0       0.000000    -0.000000    -0.000000     0.000000
    12    1  O     4d+1      0.000000     0.000000     0.000000     0.000000
    13    1  O     4d+2      0.000000     0.000000    -0.000000     0.000000

    14    2  H     2s        0.449119     0.292276     0.000000     0.000000
    15    2  H     3s        0.504268     0.490976     0.000000     0.000000
    16    2  H     3py      -0.000000    -0.000000     0.434036    -0.000000
    17    2  H     3pz      -0.000000    -0.000000    -0.000000     0.434036
    18    2  H     3px      -0.555015    -0.007838    -0.000000    -0.000000

    19    3  H     2s        0.449359     0.292188     0.449560    -0.000000
    20    3  H     3s        0.504322     0.491074     0.141853    -0.000000
    21    3  H     3py      -0.537149    -0.007362    -0.016910     0.000000
    22    3  H     3pz       0.000000     0.000000     0.000000     0.434216
    23    3  H     3px       0.139869     0.001917     0.117469    -0.000000

                                5            6            7            8
     1    1  O     2s        0.000000     0.000000     0.000000     0.000000
     2    1  O     3s        0.000000     0.000000     0.000000     0.000000
     3    1  O     3py       0.000000     0.176540     0.000000     0.000000
     4    1  O     3pz       0.000000     0.000000     0.176540     0.000000
     5    1  O     3px       1.000000     0.000000     0.000000     0.176540
     6    1  O     4py       0.000000     1.000000    -0.000000     0.000000
     7    1  O     4pz       0.000000    -0.000000     1.000000     0.000000
     8    1  O     4px       0.176540     0.000000     0.000000     1.000000
     9    1  O     4d-2      0.000000     0.000000     0.000000    -0.000000
    10    1  O     4d-1      0.000000    -0.000000    -0.000000     0.000000
    11    1  O     4d0       0.000000     0.000000    -0.000000     0.000000
    12    1  O     4d+1      0.000000     0.000000     0.000000    -0.000000
    13    1  O     4d+2      0.000000     0.000000     0.000000     0.000000

    14    2  H     2s        0.464427     0.000000     0.000000     0.438912
    15    2  H     3s        0.146723     0.000000     0.000000     0.362217
    16    2  H     3py      -0.000000     0.564667    -0.000000    -0.000000
    17    2  H     3pz      -0.000000    -0.000000     0.564667    -0.000000
    18    2  H     3px      -0.047692    -0.000000    -0.000000     0.393351

    19    3  H     2s       -0.117062     0.424621    -0.000000    -0.110568
    20    3  H     3s       -0.036937     0.350492    -0.000000    -0.091265
    21    3  H     3py       0.117469     0.404531     0.000000     0.041715
    22    3  H     3pz      -0.000000     0.000000     0.564731    -0.000000
    23    3  H     3px       0.403628     0.041715    -0.000000     0.553869

                                9           10           11           12
     1    1  O     2s        0.000000     0.000000     0.000000     0.000000
     2    1  O     3s        0.000000    -0.000000    -0.000000     0.000000
     3    1  O     3py       0.000000     0.000000    -0.000000     0.000000
     4    1  O     3pz       0.000000     0.000000     0.000000     0.000000
     5    1  O     3px       0.000000     0.000000     0.000000     0.000000
     6    1  O     4py       0.000000    -0.000000     0.000000     0.000000
     7    1  O     4pz       0.000000    -0.000000    -0.000000     0.000000
     8    1  O     4px      -0.000000     0.000000     0.000000    -0.000000
     9    1  O     4d-2      1.000000     0.000000     0.000000    -0.000000
    10    1  O     4d-1      0.000000     1.000000    -0.000000     0.000000
    11    1  O     4d0       0.000000    -0.000000     1.000000     0.000000
    12    1  O     4d+1     -0.000000     0.000000     0.000000     1.000000
    13    1  O     4d+2      0.000000     0.000000     0.000000     0.000000

    14    2  H     2s        0.000000     0.000000    -0.181327     0.000000
    15    2  H     3s       -0.000000    -0.000000     0.042564    -0.000000
    16    2  H     3py       0.392074     0.000000    -0.000000    -0.000000
    17    2  H     3pz      -0.000000     0.000000     0.000000     0.392074
    18    2  H     3px      -0.000000    -0.000000    -0.036496    -0.000000

    19    3  H     2s       -0.153185    -0.000000    -0.181339     0.000000
    20    3  H     3s        0.035998     0.000000     0.042614    -0.000000
    21    3  H     3py       0.056358     0.000000    -0.035413    -0.000000
    22    3  H     3pz      -0.000000     0.379517    -0.000000    -0.098823
    23    3  H     3px       0.339110    -0.000000     0.009221    -0.000000

                               13           14           15           16
     1    1  O     2s        0.000000     0.449119     0.504268    -0.000000
     2    1  O     3s        0.000000     0.292276     0.490976    -0.000000
     3    1  O     3py      -0.000000     0.000000     0.000000     0.434036
     4    1  O     3pz       0.000000     0.000000     0.000000    -0.000000
     5    1  O     3px       0.000000     0.464427     0.146723    -0.000000
     6    1  O     4py       0.000000     0.000000     0.000000     0.564667
     7    1  O     4pz       0.000000     0.000000     0.000000    -0.000000
     8    1  O     4px       0.000000     0.438912     0.362217    -0.000000
     9    1  O     4d-2      0.000000     0.000000    -0.000000     0.392074
    10    1  O     4d-1      0.000000     0.000000    -0.000000     0.000000
    11    1  O     4d0       0.000000    -0.181327     0.042564    -0.000000
    12    1  O     4d+1      0.000000     0.000000    -0.000000    -0.000000
    13    1  O     4d+2      1.000000     0.314068    -0.073723    -0.000000

    14    2  H     2s        0.314068     1.000000     0.452906     0.000000
    15    2  H     3s       -0.073723     0.452906     1.000006     0.000000
    16    2  H     3py      -0.000000     0.000000     0.000000     0.999984
    17    2  H     3pz      -0.000000     0.000000     0.000000    -0.000000
    18    2  H     3px       0.063212     0.000000     0.000000     0.000000

    19    3  H     2s       -0.274200     0.174110     0.359040     0.240635
    20    3  H     3s        0.064436     0.359040     0.602262     0.277326
    21    3  H     3py      -0.101745    -0.240635    -0.277326     0.224498
    22    3  H     3pz      -0.000000    -0.000000    -0.000000    -0.000000
    23    3  H     3px      -0.171153     0.311411     0.358895     0.232489

                               17           18           19           20
     1    1  O     2s       -0.000000    -0.555015     0.449359     0.504322
     2    1  O     3s       -0.000000    -0.007838     0.292188     0.491074
     3    1  O     3py      -0.000000    -0.000000     0.449560     0.141853
     4    1  O     3pz       0.434036    -0.000000    -0.000000    -0.000000
     5    1  O     3px      -0.000000    -0.047692    -0.117062    -0.036937
     6    1  O     4py      -0.000000    -0.000000     0.424621     0.350492
     7    1  O     4pz       0.564667    -0.000000    -0.000000    -0.000000
     8    1  O     4px      -0.000000     0.393351    -0.110568    -0.091265
     9    1  O     4d-2     -0.000000    -0.000000    -0.153185     0.035998
    10    1  O     4d-1      0.000000    -0.000000    -0.000000     0.000000
    11    1  O     4d0       0.000000    -0.036496    -0.181339     0.042614
    12    1  O     4d+1      0.392074    -0.000000     0.000000    -0.000000
    13    1  O     4d+2     -0.000000     0.063212    -0.274200     0.064436

    14    2  H     2s        0.000000     0.000000     0.174110     0.359040
    15    2  H     3s        0.000000     0.000000     0.359040     0.602262
    16    2  H     3py      -0.000000     0.000000     0.240635     0.277326
    17    2  H     3pz       0.999984     0.000000     0.000000     0.000000
    18    2  H     3px       0.000000     0.999984    -0.311411    -0.358895

    19    3  H     2s        0.000000    -0.311411     1.000000     0.452906
    20    3  H     3s        0.000000    -0.358895     0.452906     1.000006
    21    3  H     3py      -0.000000     0.232489    -0.000000    -0.000000
    22    3  H     3pz       0.404161     0.000000     0.000000     0.000000
    23    3  H     3px       0.000000     0.103268     0.000000     0.000000

                               21           22           23
     1    1  O     2s       -0.537149     0.000000     0.139869
     2    1  O     3s       -0.007362     0.000000     0.001917
     3    1  O     3py      -0.016910     0.000000     0.117469
     4    1  O     3pz       0.000000     0.434216    -0.000000
     5    1  O     3px       0.117469    -0.000000     0.403628
     6    1  O     4py       0.404531     0.000000     0.041715
     7    1  O     4pz       0.000000     0.564731    -0.000000
     8    1  O     4px       0.041715    -0.000000     0.553869
     9    1  O     4d-2      0.056358    -0.000000     0.339110
    10    1  O     4d-1      0.000000     0.379517    -0.000000
    11    1  O     4d0      -0.035413    -0.000000     0.009221
    12    1  O     4d+1     -0.000000    -0.098823    -0.000000
    13    1  O     4d+2     -0.101745    -0.000000    -0.171153

    14    2  H     2s       -0.240635    -0.000000     0.311411
    15    2  H     3s       -0.277326    -0.000000     0.358895
    16    2  H     3py       0.224498    -0.000000     0.232489
    17    2  H     3pz      -0.000000     0.404161     0.000000
    18    2  H     3px       0.232489     0.000000     0.103268

    19    3  H     2s       -0.000000     0.000000     0.000000
    20    3  H     3s       -0.000000     0.000000     0.000000
    21    3  H     3py       0.999984     0.000000     0.000000
    22    3  H     3pz       0.000000     0.999984    -0.000000
    23    3  H     3px       0.000000    -0.000000     0.999984



 Number of electrons:                                                          8
 Number of occupied orbitals:                                                  4
 Number of molecular orbitals:                                                 4

 Number of orbital functions:                                                 23
 Number of independent orbital functions:                                     23

 Extrapolation method: initial_guess

 Atomic guess: The first density matrix is obtained in terms of atomic orbitals
               and electronic configurations assigned to each atomic kind

 Guess for atomic kind: O

 Electronic structure
    Total number of core electrons                                          2.00
    Total number of valence electrons                                       6.00
    Total number of electrons                                               8.00
    Multiplicity                                                   not specified
    S   [  2.00] 2.00
    P      4.00


 *******************************************************************************
                  Iteration          Convergence                     Energy [au]
 *******************************************************************************
                          1        0.708315                     -15.576645311500
                          2        0.608879                     -15.587933561584
                          3        0.102828E-01                 -15.656849565404
                          4        0.113889E-02                 -15.656866888140
                          5        0.434197E-03                 -15.656867072159
                          6        0.263771E-03                 -15.656867091904
                          7        0.478536E-06                 -15.656867103452

 Energy components [Hartree]           Total Energy ::          -15.656867103452
                                        Band Energy ::           -3.000198112285
                                     Kinetic Energy ::           11.759971203220
                                   Potential Energy ::          -27.416838306672
                                      Virial (-V/T) ::            2.331369510426
                                        Core Energy ::          -26.140716385623
                                          XC Energy ::           -3.154051012914
                                     Coulomb Energy ::           13.637900295084
                       Total Pseudopotential Energy ::          -37.935781716540
                       Local Pseudopotential Energy ::          -39.218907440693
                    Nonlocal Pseudopotential Energy ::            1.283125724153
                                        Confinement ::            0.350941276976

 Orbital energies  State     L     Occupation   Energy[a.u.]          Energy[eV]

                       1     0          2.000      -0.864471          -23.523463

                       1     1          4.000      -0.317814           -8.648154


 Total Electron Density at R=0:                                         0.000068

 Guess for atomic kind: H

 Electronic structure
    Total number of core electrons                                          0.00
    Total number of valence electrons                                       1.00
    Total number of electrons                                               1.00
    Multiplicity                                                   not specified
    S      1.00


 *******************************************************************************
                  Iteration          Convergence                     Energy [au]
 *******************************************************************************
                          1        0.437545E-02                  -0.424159432110
                          2        0.531356E-03                  -0.424178438213
                          3        0.259176E-06                  -0.424178722480

 Energy components [Hartree]           Total Energy ::           -0.424178722480
                                        Band Energy ::           -0.199015229016
                                     Kinetic Energy ::            0.464007633961
                                   Potential Energy ::           -0.888186356441
                                      Virial (-V/T) ::            1.914163240935
                                        Core Energy ::           -0.479160803564
                                          XC Energy ::           -0.244352904054
                                     Coulomb Energy ::            0.299334985138
                       Total Pseudopotential Energy ::           -0.962295316385
                       Local Pseudopotential Energy ::           -0.962295316385
                    Nonlocal Pseudopotential Energy ::            0.000000000000
                                        Confinement ::            0.191268788606

 Orbital energies  State     L     Occupation   Energy[a.u.]          Energy[eV]

                       1     0          1.000      -0.199015           -5.415480


 Total Electron Density at R=0:                                         0.242907
 Re-scaling the density matrix to get the right number of electrons
                  # Electrons              Trace(P)               Scaling factor
                            8                 8.000                        1.000


 SCF WAVEFUNCTION OPTIMIZATION

  Step     Update method      Time    Convergence         Total energy    Change
  ------------------------------------------------------------------------------


 DENSITY MATRIX

                                1            2            3            4
     1    1  O     2s        2.001350     0.007831     0.000000     0.000000
     2    1  O     3s        0.007831     0.000031     0.000000     0.000000
     3    1  O     3py       0.000000     0.000000     1.329741     0.000000
     4    1  O     3pz       0.000000     0.000000     0.000000     1.329741
     5    1  O     3px       0.000000     0.000000     0.000000     0.000000
     6    1  O     4py       0.000000     0.000000     0.009963     0.000000
     7    1  O     4pz       0.000000     0.000000     0.000000     0.009963
     8    1  O     4px       0.000000     0.000000     0.000000     0.000000
     9    1  O     4d-2      0.000000     0.000000     0.000000     0.000000
    10    1  O     4d-1      0.000000     0.000000     0.000000     0.000000
    11    1  O     4d0       0.000000     0.000000     0.000000     0.000000
    12    1  O     4d+1      0.000000     0.000000     0.000000     0.000000
    13    1  O     4d+2      0.000000     0.000000     0.000000     0.000000

    14    2  H     2s        0.000000     0.000000     0.000000     0.000000
    15    2  H     3s        0.000000     0.000000     0.000000     0.000000
    16    2  H     3py       0.000000     0.000000     0.000000     0.000000
    17    2  H     3pz       0.000000     0.000000     0.000000     0.000000
    18    2  H     3px       0.000000     0.000000     0.000000     0.000000

    19    3  H     2s        0.000000     0.000000     0.000000     0.000000
    20    3  H     3s        0.000000     0.000000     0.000000     0.000000
    21    3  H     3py       0.000000     0.000000     0.000000     0.000000
    22    3  H     3pz       0.000000     0.000000     0.000000     0.000000
    23    3  H     3px       0.000000     0.000000     0.000000     0.000000

                                5            6            7            8
     1    1  O     2s        0.000000     0.000000     0.000000     0.000000
     2    1  O     3s        0.000000     0.000000     0.000000     0.000000
     3    1  O     3py       0.000000     0.009963     0.000000     0.000000
     4    1  O     3pz       0.000000     0.000000     0.009963     0.000000
     5    1  O     3px       1.329741     0.000000     0.000000     0.009963
     6    1  O     4py       0.000000     0.000075     0.000000     0.000000
     7    1  O     4pz       0.000000     0.000000     0.000075     0.000000
     8    1  O     4px       0.009963     0.000000     0.000000     0.000075
     9    1  O     4d-2      0.000000     0.000000     0.000000     0.000000
    10    1  O     4d-1      0.000000     0.000000     0.000000     0.000000
    11    1  O     4d0       0.000000     0.000000     0.000000     0.000000
    12    1  O     4d+1      0.000000     0.000000     0.000000     0.000000
    13    1  O     4d+2      0.000000     0.000000     0.000000     0.000000

    14    2  H     2s        0.000000     0.000000     0.000000     0.000000
    15    2  H     3s        0.000000     0.000000     0.000000     0.000000
    16    2  H     3py       0.000000     0.000000     0.000000     0.000000
    17    2  H     3pz       0.000000     0.000000     0.000000     0.000000
    18    2  H     3px       0.000000     0.000000     0.000000     0.000000

    19    3  H     2s        0.000000     0.000000     0.000000     0.000000
    20    3  H     3s        0.000000     0.000000     0.000000     0.000000
    21    3  H     3py       0.000000     0.000000     0.000000     0.000000
    22    3  H     3pz       0.000000     0.000000     0.000000     0.000000
    23    3  H     3px       0.000000     0.000000     0.000000     0.000000

                                9           10           11           12
     1    1  O     2s        0.000000     0.000000     0.000000     0.000000
     2    1  O     3s        0.000000     0.000000     0.000000     0.000000
     3    1  O     3py       0.000000     0.000000     0.000000     0.000000
     4    1  O     3pz       0.000000     0.000000     0.000000     0.000000
     5    1  O     3px       0.000000     0.000000     0.000000     0.000000
     6    1  O     4py       0.000000     0.000000     0.000000     0.000000
     7    1  O     4pz       0.000000     0.000000     0.000000     0.000000
     8    1  O     4px       0.000000     0.000000     0.000000     0.000000
     9    1  O     4d-2      0.000000     0.000000     0.000000     0.000000
    10    1  O     4d-1      0.000000     0.000000     0.000000     0.000000
    11    1  O     4d0       0.000000     0.000000     0.000000     0.000000
    12    1  O     4d+1      0.000000     0.000000     0.000000     0.000000
    13    1  O     4d+2      0.000000     0.000000     0.000000     0.000000

    14    2  H     2s        0.000000     0.000000     0.000000     0.000000
    15    2  H     3s        0.000000     0.000000     0.000000     0.000000
    16    2  H     3py       0.000000     0.000000     0.000000     0.000000
    17    2  H     3pz       0.000000     0.000000     0.000000     0.000000
    18    2  H     3px       0.000000     0.000000     0.000000     0.000000

    19    3  H     2s        0.000000     0.000000     0.000000     0.000000
    20    3  H     3s        0.000000     0.000000     0.000000     0.000000
    21    3  H     3py       0.000000     0.000000     0.000000     0.000000
    22    3  H     3pz       0.000000     0.000000     0.000000     0.000000
    23    3  H     3px       0.000000     0.000000     0.000000     0.000000

                               13           14           15           16
     1    1  O     2s        0.000000     0.000000     0.000000     0.000000
     2    1  O     3s        0.000000     0.000000     0.000000     0.000000
     3    1  O     3py       0.000000     0.000000     0.000000     0.000000
     4    1  O     3pz       0.000000     0.000000     0.000000     0.000000
     5    1  O     3px       0.000000     0.000000     0.000000     0.000000
     6    1  O     4py       0.000000     0.000000     0.000000     0.000000
     7    1  O     4pz       0.000000     0.000000     0.000000     0.000000
     8    1  O     4px       0.000000     0.000000     0.000000     0.000000
     9    1  O     4d-2      0.000000     0.000000     0.000000     0.000000
    10    1  O     4d-1      0.000000     0.000000     0.000000     0.000000
    11    1  O     4d0       0.000000     0.000000     0.000000     0.000000
    12    1  O     4d+1      0.000000     0.000000     0.000000     0.000000
    13    1  O     4d+2      0.000000     0.000000     0.000000     0.000000

    14    2  H     2s        0.000000     0.579669     0.296551     0.000000
    15    2  H     3s        0.000000     0.296551     0.151712     0.000000
    16    2  H     3py       0.000000     0.000000     0.000000     0.000000
    17    2  H     3pz       0.000000     0.000000     0.000000     0.000000
    18    2  H     3px       0.000000     0.000000     0.000000     0.000000

    19    3  H     2s        0.000000     0.000000     0.000000     0.000000
    20    3  H     3s        0.000000     0.000000     0.000000     0.000000
    21    3  H     3py       0.000000     0.000000     0.000000     0.000000
    22    3  H     3pz       0.000000     0.000000     0.000000     0.000000
    23    3  H     3px       0.000000     0.000000     0.000000     0.000000

                               17           18           19           20
     1    1  O     2s        0.000000     0.000000     0.000000     0.000000
     2    1  O     3s        0.000000     0.000000     0.000000     0.000000
     3    1  O     3py       0.000000     0.000000     0.000000     0.000000
     4    1  O     3pz       0.000000     0.000000     0.000000     0.000000
     5    1  O     3px       0.000000     0.000000     0.000000     0.000000
     6    1  O     4py       0.000000     0.000000     0.000000     0.000000
     7    1  O     4pz       0.000000     0.000000     0.000000     0.000000
     8    1  O     4px       0.000000     0.000000     0.000000     0.000000
     9    1  O     4d-2      0.000000     0.000000     0.000000     0.000000
    10    1  O     4d-1      0.000000     0.000000     0.000000     0.000000
    11    1  O     4d0       0.000000     0.000000     0.000000     0.000000
    12    1  O     4d+1      0.000000     0.000000     0.000000     0.000000
    13    1  O     4d+2      0.000000     0.000000     0.000000     0.000000

    14    2  H     2s        0.000000     0.000000     0.000000     0.000000
    15    2  H     3s        0.000000     0.000000     0.000000     0.000000
    16    2  H     3py       0.000000     0.000000     0.000000     0.000000
    17    2  H     3pz       0.000000     0.000000     0.000000     0.000000
    18    2  H     3px       0.000000     0.000000     0.000000     0.000000

    19    3  H     2s        0.000000     0.000000     0.579669     0.296551
    20    3  H     3s        0.000000     0.000000     0.296551     0.151712
    21    3  H     3py       0.000000     0.000000     0.000000     0.000000
    22    3  H     3pz       0.000000     0.000000     0.000000     0.000000
    23    3  H     3px       0.000000     0.000000     0.000000     0.000000

                               21           22           23
     1    1  O     2s        0.000000     0.000000     0.000000
     2    1  O     3s        0.000000     0.000000     0.000000
     3    1  O     3py       0.000000     0.000000     0.000000
     4    1  O     3pz       0.000000     0.000000     0.000000
     5    1  O     3px       0.000000     0.000000     0.000000
     6    1  O     4py       0.000000     0.000000     0.000000
     7    1  O     4pz       0.000000     0.000000     0.000000
     8    1  O     4px       0.000000     0.000000     0.000000
     9    1  O     4d-2      0.000000     0.000000     0.000000
    10    1  O     4d-1      0.000000     0.000000     0.000000
    11    1  O     4d0       0.000000     0.000000     0.000000
    12    1  O     4d+1      0.000000     0.000000     0.000000
    13    1  O     4d+2      0.000000     0.000000     0.000000

    14    2  H     2s        0.000000     0.000000     0.000000
    15    2  H     3s        0.000000     0.000000     0.000000
    16    2  H     3py       0.000000     0.000000     0.000000
    17    2  H     3pz       0.000000     0.000000     0.000000
    18    2  H     3px       0.000000     0.000000     0.000000

    19    3  H     2s        0.000000     0.000000     0.000000
    20    3  H     3s        0.000000     0.000000     0.000000
    21    3  H     3py       0.000000     0.000000     0.000000
    22    3  H     3pz       0.000000     0.000000     0.000000
    23    3  H     3px       0.000000     0.000000     0.000000


     1 P_Mix/Diag. 0.40E+00    3.2     0.57761381       -17.0573641880 -1.71E+01


 DENSITY MATRIX

                                1            2            3            4
     1    1  O     2s        1.832380    -0.022568    -0.163439     0.000000
     2    1  O     3s       -0.022568     0.005845    -0.032169     0.000000
     3    1  O     3py      -0.163439    -0.032169     1.338978     0.000000
     4    1  O     3pz       0.000000     0.000000     0.000000     1.560786
     5    1  O     3px      -0.126182    -0.024794     0.069807     0.000000
     6    1  O     4py      -0.004685     0.003731    -0.046702     0.000000
     7    1  O     4pz       0.000000    -0.000000    -0.000000    -0.026554
     8    1  O     4px      -0.003620     0.002868     0.009286    -0.000000
     9    1  O     4d-2     -0.008106    -0.000616     0.007248     0.000000
    10    1  O     4d-1      0.000000     0.000000    -0.000000     0.014607
    11    1  O     4d0      -0.001748     0.001177    -0.008831    -0.000000
    12    1  O     4d+1     -0.000000     0.000000     0.000000     0.011278
    13    1  O     4d+2      0.002113     0.000163    -0.014143     0.000000

    14    2  H     2s        0.042540    -0.015937     0.000557    -0.000000
    15    2  H     3s       -0.004469     0.000052    -0.005897    -0.000000
    16    2  H     3py      -0.004334    -0.001216     0.019121    -0.000000
    17    2  H     3pz       0.000000     0.000000    -0.000000     0.026516
    18    2  H     3px      -0.015482     0.002498     0.001115     0.000000

    19    3  H     2s        0.042540    -0.015986     0.215543    -0.000000
    20    3  H     3s       -0.004451     0.000049     0.010610    -0.000000
    21    3  H     3py      -0.016086     0.002117    -0.021516     0.000000
    22    3  H     3pz       0.000000     0.000000    -0.000000     0.026534
    23    3  H     3px      -0.000294    -0.001805     0.012576    -0.000000

                                5            6            7            8
     1    1  O     2s       -0.126182    -0.004685     0.000000    -0.003620
     2    1  O     3s       -0.024794     0.003731    -0.000000     0.002868
     3    1  O     3py       0.069807    -0.046702    -0.000000     0.009286
     4    1  O     3pz       0.000000     0.000000    -0.026554    -0.000000
     5    1  O     3px       1.302622     0.009302    -0.000000    -0.051468
     6    1  O     4py       0.009302     0.006223    -0.000000    -0.002402
     7    1  O     4pz      -0.000000    -0.000000     0.001432     0.000000
     8    1  O     4px      -0.051468    -0.002402     0.000000     0.007454
     9    1  O     4d-2      0.011795    -0.000242    -0.000000    -0.001075
    10    1  O     4d-1      0.000000     0.000000    -0.000623    -0.000000
    11    1  O     4d0      -0.006824     0.000848     0.000000     0.000654
    12    1  O     4d+1      0.000000     0.000000    -0.000481    -0.000000
    13    1  O     4d+2      0.012786     0.001822    -0.000000    -0.001993

    14    2  H     2s        0.222569     0.004412    -0.000000    -0.028435
    15    2  H     3s        0.012509     0.001110     0.000000    -0.001590
    16    2  H     3py       0.001987    -0.001918    -0.000000     0.000353
    17    2  H     3pz      -0.000000     0.000000    -0.001131    -0.000000
    18    2  H     3px      -0.025085    -0.000299    -0.000000     0.003488

    19    3  H     2s       -0.055594    -0.026452     0.000000     0.011436
    20    3  H     3s       -0.008889    -0.001261     0.000000     0.001476
    21    3  H     3py       0.011708     0.003164    -0.000000    -0.001621
    22    3  H     3pz       0.000000     0.000000    -0.001131    -0.000000
    23    3  H     3px       0.015561    -0.000970    -0.000000    -0.001586

                                9           10           11           12
     1    1  O     2s       -0.008106     0.000000    -0.001748    -0.000000
     2    1  O     3s       -0.000616     0.000000     0.001177     0.000000
     3    1  O     3py       0.007248    -0.000000    -0.008831     0.000000
     4    1  O     3pz       0.000000     0.014607    -0.000000     0.011278
     5    1  O     3px       0.011795     0.000000    -0.006824     0.000000
     6    1  O     4py      -0.000242     0.000000     0.000848     0.000000
     7    1  O     4pz      -0.000000    -0.000623     0.000000    -0.000481
     8    1  O     4px      -0.001075    -0.000000     0.000654    -0.000000
     9    1  O     4d-2      0.000358     0.000000    -0.000207     0.000000
    10    1  O     4d-1      0.000000     0.000280    -0.000000     0.000216
    11    1  O     4d0      -0.000207    -0.000000     0.000266    -0.000000
    12    1  O     4d+1      0.000000     0.000216    -0.000000     0.000167
    13    1  O     4d+2      0.000125     0.000000     0.000054     0.000000

    14    2  H     2s        0.004301    -0.000000    -0.003463    -0.000000
    15    2  H     3s        0.000234    -0.000000    -0.000021    -0.000000
    16    2  H     3py       0.000237    -0.000000    -0.000320     0.000000
    17    2  H     3pz      -0.000000     0.000508    -0.000000     0.000392
    18    2  H     3px      -0.000405     0.000000     0.000477     0.000000

    19    3  H     2s        0.000479    -0.000000    -0.003464    -0.000000
    20    3  H     3s       -0.000061    -0.000000    -0.000021    -0.000000
    21    3  H     3py       0.000155     0.000000     0.000381     0.000000
    22    3  H     3pz       0.000000     0.000508    -0.000000     0.000392
    23    3  H     3px       0.000432    -0.000000    -0.000430    -0.000000

                               13           14           15           16
     1    1  O     2s        0.002113     0.042540    -0.004469    -0.004334
     2    1  O     3s        0.000163    -0.015937     0.000052    -0.001216
     3    1  O     3py      -0.014143     0.000557    -0.005897     0.019121
     4    1  O     3pz       0.000000    -0.000000    -0.000000    -0.000000
     5    1  O     3px       0.012786     0.222569     0.012509     0.001987
     6    1  O     4py       0.001822     0.004412     0.001110    -0.001918
     7    1  O     4pz      -0.000000    -0.000000     0.000000    -0.000000
     8    1  O     4px      -0.001993    -0.028435    -0.001590     0.000353
     9    1  O     4d-2      0.000125     0.004301     0.000234     0.000237
    10    1  O     4d-1      0.000000    -0.000000    -0.000000    -0.000000
    11    1  O     4d0       0.000054    -0.003463    -0.000021    -0.000320
    12    1  O     4d+1      0.000000    -0.000000    -0.000000     0.000000
    13    1  O     4d+2      0.000802     0.006693     0.000539    -0.000512

    14    2  H     2s        0.006693     0.462083     0.183328     0.000019
    15    2  H     3s        0.000539     0.183328     0.091468    -0.000229
    16    2  H     3py      -0.000512     0.000019    -0.000229     0.000679
    17    2  H     3pz       0.000000    -0.000000    -0.000000    -0.000000
    18    2  H     3px      -0.000807    -0.014611    -0.000562     0.000015

    19    3  H     2s       -0.007940    -0.022767    -0.005133     0.007912
    20    3  H     3s       -0.000585    -0.005142    -0.000369     0.000377
    21    3  H     3py       0.000956     0.003346     0.000742    -0.000821
    22    3  H     3pz       0.000000    -0.000000    -0.000000    -0.000000
    23    3  H     3px       0.000093     0.007305     0.000196     0.000446

                               17           18           19           20
     1    1  O     2s        0.000000    -0.015482     0.042540    -0.004451
     2    1  O     3s        0.000000     0.002498    -0.015986     0.000049
     3    1  O     3py      -0.000000     0.001115     0.215543     0.010610
     4    1  O     3pz       0.026516     0.000000    -0.000000    -0.000000
     5    1  O     3px      -0.000000    -0.025085    -0.055594    -0.008889
     6    1  O     4py       0.000000    -0.000299    -0.026452    -0.001261
     7    1  O     4pz      -0.001131    -0.000000     0.000000     0.000000
     8    1  O     4px      -0.000000     0.003488     0.011436     0.001476
     9    1  O     4d-2     -0.000000    -0.000405     0.000479    -0.000061
    10    1  O     4d-1      0.000508     0.000000    -0.000000    -0.000000
    11    1  O     4d0      -0.000000     0.000477    -0.003464    -0.000021
    12    1  O     4d+1      0.000392     0.000000    -0.000000    -0.000000
    13    1  O     4d+2      0.000000    -0.000807    -0.007940    -0.000585

    14    2  H     2s       -0.000000    -0.014611    -0.022767    -0.005142
    15    2  H     3s       -0.000000    -0.000562    -0.005133    -0.000369
    16    2  H     3py      -0.000000     0.000015     0.007912     0.000377
    17    2  H     3pz       0.000922     0.000000    -0.000000    -0.000000
    18    2  H     3px       0.000000     0.002036     0.001396     0.000669

    19    3  H     2s       -0.000000     0.001396     0.462138     0.183333
    20    3  H     3s       -0.000000     0.000669     0.183333     0.091468
    21    3  H     3py       0.000000    -0.000067    -0.014142    -0.000602
    22    3  H     3pz       0.000922     0.000000    -0.000000    -0.000000
    23    3  H     3px      -0.000000    -0.000920     0.003702    -0.000081

                               21           22           23
     1    1  O     2s       -0.016086     0.000000    -0.000294
     2    1  O     3s        0.002117     0.000000    -0.001805
     3    1  O     3py      -0.021516    -0.000000     0.012576
     4    1  O     3pz       0.000000     0.026534    -0.000000
     5    1  O     3px       0.011708     0.000000     0.015561
     6    1  O     4py       0.003164     0.000000    -0.000970
     7    1  O     4pz      -0.000000    -0.001131    -0.000000
     8    1  O     4px      -0.001621    -0.000000    -0.001586
     9    1  O     4d-2      0.000155     0.000000     0.000432
    10    1  O     4d-1      0.000000     0.000508    -0.000000
    11    1  O     4d0       0.000381    -0.000000    -0.000430
    12    1  O     4d+1      0.000000     0.000392    -0.000000
    13    1  O     4d+2      0.000956     0.000000     0.000093

    14    2  H     2s        0.003346    -0.000000     0.007305
    15    2  H     3s        0.000742    -0.000000     0.000196
    16    2  H     3py      -0.000821    -0.000000     0.000446
    17    2  H     3pz       0.000000     0.000922    -0.000000
    18    2  H     3px      -0.000067     0.000000    -0.000920

    19    3  H     2s       -0.014142    -0.000000     0.003702
    20    3  H     3s       -0.000602    -0.000000    -0.000081
    21    3  H     3py       0.001959     0.000000    -0.000318
    22    3  H     3pz       0.000000     0.000923    -0.000000
    23    3  H     3px      -0.000318    -0.000000     0.000759


     2 P_Mix/Diag. 0.40E+00    3.9     0.37435045       -17.1225848897 -6.52E-02


 DENSITY MATRIX

                                1            2            3            4
     1    1  O     2s        1.691832    -0.029786    -0.276923     0.000000
     2    1  O     3s       -0.029786     0.009544    -0.053656     0.000000
     3    1  O     3py      -0.276923    -0.053656     1.268505     0.000000
     4    1  O     3pz       0.000000     0.000000     0.000000     1.649725
     5    1  O     3px      -0.213829    -0.041377     0.120666     0.000000
     6    1  O     4py      -0.025269     0.003906    -0.043386     0.000000
     7    1  O     4pz       0.000000     0.000000    -0.000000     0.010480
     8    1  O     4px      -0.019524     0.002999     0.024247    -0.000000
     9    1  O     4d-2     -0.013552    -0.001302     0.012311     0.000000
    10    1  O     4d-1      0.000000     0.000000    -0.000000     0.025345
    11    1  O     4d0       0.000556     0.002076    -0.015704    -0.000000
    12    1  O     4d+1     -0.000000     0.000000     0.000000     0.019576
    13    1  O     4d+2      0.003534     0.000342    -0.022334     0.000000

    14    2  H     2s        0.066181    -0.028901     0.000721    -0.000000
    15    2  H     3s       -0.004987    -0.001080    -0.011857    -0.000000
    16    2  H     3py      -0.011063    -0.002589     0.034150    -0.000000
    17    2  H     3pz       0.000000     0.000000    -0.000000     0.053857
    18    2  H     3px      -0.031561     0.003650     0.006491     0.000000

    19    3  H     2s        0.066201    -0.028975     0.360476    -0.000000
    20    3  H     3s       -0.004950    -0.001086     0.032576    -0.000000
    21    3  H     3py      -0.033350     0.002889    -0.023516     0.000000
    22    3  H     3pz       0.000000     0.000000    -0.000000     0.053885
    23    3  H     3px      -0.002755    -0.003424     0.022476    -0.000000

                                5            6            7            8
     1    1  O     2s       -0.213829    -0.025269     0.000000    -0.019524
     2    1  O     3s       -0.041377     0.003906     0.000000     0.002999
     3    1  O     3py       0.120666    -0.043386    -0.000000     0.024247
     4    1  O     3pz       0.000000     0.000000     0.010480    -0.000000
     5    1  O     3px       1.205570     0.024262    -0.000000    -0.055909
     6    1  O     4py       0.024262     0.006392    -0.000000    -0.002711
     7    1  O     4pz      -0.000000    -0.000000     0.001837     0.000000
     8    1  O     4px      -0.055909    -0.002711     0.000000     0.007781
     9    1  O     4d-2      0.019176     0.000278    -0.000000    -0.000964
    10    1  O     4d-1      0.000000     0.000000     0.000240    -0.000000
    11    1  O     4d0      -0.012136     0.000713     0.000000     0.000549
    12    1  O     4d+1      0.000000     0.000000     0.000186    -0.000000
    13    1  O     4d+2      0.019758     0.002265    -0.000000    -0.002769

    14    2  H     2s        0.372310     0.010247    -0.000000    -0.037104
    15    2  H     3s        0.036783     0.002414    -0.000000    -0.003485
    16    2  H     3py       0.007452    -0.001816    -0.000000     0.000925
    17    2  H     3pz      -0.000000     0.000000     0.000727    -0.000000
    18    2  H     3px      -0.031060    -0.000126     0.000000     0.004363

    19    3  H     2s       -0.093185    -0.033400     0.000000     0.019263
    20    3  H     3s       -0.020787    -0.002772     0.000000     0.003212
    21    3  H     3py       0.021518     0.004174    -0.000000    -0.001683
    22    3  H     3pz       0.000000     0.000000     0.000727    -0.000000
    23    3  H     3px       0.026614    -0.000634    -0.000000    -0.001614

                                9           10           11           12
     1    1  O     2s       -0.013552     0.000000     0.000556    -0.000000
     2    1  O     3s       -0.001302     0.000000     0.002076     0.000000
     3    1  O     3py       0.012311    -0.000000    -0.015704     0.000000
     4    1  O     3pz       0.000000     0.025345    -0.000000     0.019576
     5    1  O     3px       0.019176     0.000000    -0.012136     0.000000
     6    1  O     4py       0.000278     0.000000     0.000713     0.000000
     7    1  O     4pz      -0.000000     0.000240     0.000000     0.000186
     8    1  O     4px      -0.000964    -0.000000     0.000549    -0.000000
     9    1  O     4d-2      0.000649     0.000000    -0.000444     0.000000
    10    1  O     4d-1      0.000000     0.000553    -0.000000     0.000427
    11    1  O     4d0      -0.000444    -0.000000     0.000521    -0.000000
    12    1  O     4d+1      0.000000     0.000427    -0.000000     0.000330
    13    1  O     4d+2      0.000211     0.000000     0.000116     0.000000

    14    2  H     2s        0.008250    -0.000000    -0.006581    -0.000000
    15    2  H     3s        0.000787    -0.000000    -0.000317    -0.000000
    16    2  H     3py       0.000589    -0.000000    -0.000744     0.000000
    17    2  H     3pz      -0.000000     0.001187    -0.000000     0.000917
    18    2  H     3px      -0.000450     0.000000     0.000616     0.000000

    19    3  H     2s        0.001067    -0.000000    -0.006582    -0.000000
    20    3  H     3s       -0.000123    -0.000000    -0.000316    -0.000000
    21    3  H     3py       0.000471     0.000000     0.000409     0.000000
    22    3  H     3pz       0.000000     0.001187    -0.000000     0.000917
    23    3  H     3px       0.000861    -0.000000    -0.000875     0.000000

                               13           14           15           16
     1    1  O     2s        0.003534     0.066181    -0.004987    -0.011063
     2    1  O     3s        0.000342    -0.028901    -0.001080    -0.002589
     3    1  O     3py      -0.022334     0.000721    -0.011857     0.034150
     4    1  O     3pz       0.000000    -0.000000    -0.000000    -0.000000
     5    1  O     3px       0.019758     0.372310     0.036783     0.007452
[...]
     7    1  O     4pz      -0.000000     0.001242    -0.000000     0.000959
     8    1  O     4px      -0.000949     0.000000     0.000591     0.000000
     9    1  O     4d-2      0.001143    -0.000000    -0.000779    -0.000000
    10    1  O     4d-1     -0.000000     0.000976    -0.000000     0.000754
    11    1  O     4d0      -0.000779    -0.000000     0.000902    -0.000000
    12    1  O     4d+1     -0.000000     0.000754    -0.000000     0.000582
    13    1  O     4d+2      0.000312     0.000000     0.000203     0.000000

    14    2  H     2s        0.013869    -0.000000    -0.011220    -0.000000
    15    2  H     3s        0.001662    -0.000000    -0.000776    -0.000000
    16    2  H     3py       0.001163    -0.000000    -0.001358    -0.000000
    17    2  H     3pz      -0.000000     0.002231    -0.000000     0.001723
    18    2  H     3px      -0.000387     0.000000     0.000830     0.000000

    19    3  H     2s        0.002004    -0.000000    -0.011224    -0.000000
    20    3  H     3s       -0.000168    -0.000000    -0.000775    -0.000000
    21    3  H     3py       0.001015     0.000000     0.000461     0.000000
    22    3  H     3pz      -0.000000     0.002231    -0.000000     0.001724
    23    3  H     3px       0.001534    -0.000000    -0.001523    -0.000000

                               13           14           15           16
     1    1  O     2s        0.006001     0.103483    -0.006399    -0.020934
     2    1  O     3s        0.000597    -0.046708    -0.002794    -0.004590
     3    1  O     3py      -0.034886    -0.000674    -0.020728     0.057549
     4    1  O     3pz       0.000000    -0.000000    -0.000000    -0.000000
     5    1  O     3px       0.030073     0.591670     0.075240     0.015678
     6    1  O     4py       0.003095     0.018572     0.004540    -0.002044
     7    1  O     4pz       0.000000    -0.000000    -0.000000    -0.000000
     8    1  O     4px      -0.004072    -0.052711    -0.006830     0.001687
     9    1  O     4d-2      0.000312     0.013869     0.001662     0.001163
    10    1  O     4d-1      0.000000    -0.000000    -0.000000    -0.000000
    11    1  O     4d0       0.000203    -0.011220    -0.000776    -0.001358
    12    1  O     4d+1      0.000000    -0.000000    -0.000000    -0.000000
    13    1  O     4d+2      0.002257     0.020672     0.003309    -0.001484

    14    2  H     2s        0.020672     0.385264     0.045610     0.003887
    15    2  H     3s        0.003309     0.045610     0.006293    -0.000534
    16    2  H     3py      -0.001484     0.003887    -0.000534     0.002844
    17    2  H     3pz      -0.000000    -0.000000    -0.000000    -0.000000
    18    2  H     3px      -0.001910    -0.034349    -0.003527     0.000414

    19    3  H     2s       -0.024801    -0.086854    -0.027150     0.026847
    20    3  H     3s       -0.003698    -0.027151    -0.004920     0.003002
    21    3  H     3py       0.001978     0.011348     0.003174    -0.001003
    22    3  H     3pz       0.000000    -0.000000    -0.000000    -0.000000
    23    3  H     3px       0.000237     0.024796     0.002280     0.002046

                               17           18           19           20
     1    1  O     2s        0.000000    -0.054696     0.103549    -0.006345
     2    1  O     3s        0.000000     0.004955    -0.046789    -0.002804
     3    1  O     3py       0.000000     0.015288     0.572390     0.067538
     4    1  O     3pz       0.095499     0.000000    -0.000000    -0.000000
     5    1  O     3px      -0.000000    -0.037217    -0.149798    -0.039051
     6    1  O     4py       0.000000     0.000057    -0.046434    -0.005478
     7    1  O     4pz       0.002839     0.000000    -0.000000    -0.000000
     8    1  O     4px       0.000000     0.005596     0.031253     0.006109
     9    1  O     4d-2     -0.000000    -0.000387     0.002004    -0.000168
    10    1  O     4d-1      0.002231     0.000000    -0.000000    -0.000000
    11    1  O     4d0      -0.000000     0.000830    -0.011224    -0.000775
    12    1  O     4d+1      0.001723     0.000000    -0.000000    -0.000000
    13    1  O     4d+2     -0.000000    -0.001910    -0.024801    -0.003698

    14    2  H     2s       -0.000000    -0.034349    -0.086854    -0.027151
    15    2  H     3s       -0.000000    -0.003527    -0.027150    -0.004920
    16    2  H     3py      -0.000000     0.000414     0.026847     0.003002
    17    2  H     3pz       0.005098     0.000000    -0.000000    -0.000000
    18    2  H     3px       0.000000     0.004478     0.004734     0.002495

    19    3  H     2s       -0.000000     0.004734     0.385317     0.045600
    20    3  H     3s       -0.000000     0.002495     0.045600     0.006290
    21    3  H     3py       0.000000     0.000829    -0.032272    -0.003549
    22    3  H     3pz       0.005100     0.000000    -0.000000    -0.000000
    23    3  H     3px      -0.000000    -0.001752     0.012414     0.000370

                               21           22           23
     1    1  O     2s       -0.058243     0.000000    -0.006476
     2    1  O     3s        0.003646     0.000000    -0.005689
     3    1  O     3py      -0.023630     0.000000     0.036825
     4    1  O     3pz       0.000000     0.095535    -0.000000
     5    1  O     3px       0.036435     0.000000     0.043991
     6    1  O     4py       0.005546     0.000000    -0.000289
     7    1  O     4pz       0.000000     0.002840    -0.000000
     8    1  O     4px      -0.001915     0.000000    -0.001978
     9    1  O     4d-2      0.001015    -0.000000     0.001534
    10    1  O     4d-1      0.000000     0.002231    -0.000000
    11    1  O     4d0       0.000461    -0.000000    -0.001523
    12    1  O     4d+1      0.000000     0.001724    -0.000000
    13    1  O     4d+2      0.001978     0.000000     0.000237

    14    2  H     2s        0.011348    -0.000000     0.024796
    15    2  H     3s        0.003174    -0.000000     0.002280
    16    2  H     3py      -0.001003    -0.000000     0.002046
    17    2  H     3pz       0.000000     0.005100    -0.000000
    18    2  H     3px       0.000829     0.000000    -0.001752

    19    3  H     2s       -0.032272    -0.000000     0.012414
    20    3  H     3s       -0.003549    -0.000000     0.000370
    21    3  H     3py       0.004580     0.000000    -0.000036
    22    3  H     3pz       0.000000     0.005102    -0.000000
    23    3  H     3px      -0.000036    -0.000000     0.002747



 !-----------------------------------------------------------------------------!
                     Mulliken Population Analysis

 #  Atom  Element  Kind  Atomic population                           Net charge
       1     O        1          6.362342                             -0.362342
       2     H        2          0.818731                              0.181269
       3     H        2          0.818927                              0.181073
 # Total charge                              8.000000                  0.000000

 !-----------------------------------------------------------------------------!

 !-----------------------------------------------------------------------------!
                           Hirshfeld Charges

  #Atom  Element  Kind  Ref Charge     Population                    Net charge
      1       O      1       6.000          7.101                        -1.101
      2       H      2       1.000          0.444                         0.556
      3       H      2       1.000          0.444                         0.556

  Total Charge                                                            0.012
 !-----------------------------------------------------------------------------!

 ENERGY| Total FORCE_EVAL ( QS ) energy (a.u.):              -17.220141389434321


 -------------------------------------------------------------------------------
 -                                                                             -
 -                                DBCSR STATISTICS                             -
 -                                                                             -
 -------------------------------------------------------------------------------
 COUNTER                                    TOTAL       BLAS       SMM       ACC
 flops    13 x     5 x     4                 5200       0.0%    100.0%      0.0%
 flops     5 x    13 x     4                 5200       0.0%    100.0%      0.0%
 flops     5 x     5 x     4                 6000       0.0%    100.0%      0.0%
 flops    13 x    13 x     4                13520       0.0%    100.0%      0.0%
 flops inhomo. stacks                           0       0.0%      0.0%      0.0%
 flops total                        29.920000E+03       0.0%    100.0%      0.0%
 flops max/rank                     29.920000E+03       0.0%    100.0%      0.0%
 matmuls inhomo. stacks                         0       0.0%      0.0%      0.0%
 matmuls total                                 60       0.0%    100.0%      0.0%
 number of processed stacks                    40       0.0%    100.0%      0.0%
 average stack size                                     0.0       1.5       0.0
 marketing flops                    42.320000E+03
 -------------------------------------------------------------------------------
 # multiplications                             10
 max memory usage/rank             970.575872E+06
 # max total images/rank                        1
 # max 3D layers                                1
 # MPI messages exchanged                       0
 MPI messages size (bytes):
  total size                         0.000000E+00
  min size                           0.000000E+00
  max size                           0.000000E+00
  average size                       0.000000E+00
 MPI breakdown and total messages size (bytes):
             size <=      128                   0                        0
       128 < size <=     8192                   0                        0
      8192 < size <=    32768                   0                        0
     32768 < size <=   131072                   0                        0
    131072 < size <=  4194304                   0                        0
   4194304 < size <= 16777216                   0                        0
  16777216 < size                               0                        0
 -------------------------------------------------------------------------------
 -                                                                             -
 -                      DBCSR MESSAGE PASSING PERFORMANCE                      -
 -                                                                             -
 -------------------------------------------------------------------------------
 ROUTINE             CALLS      AVE VOLUME [Bytes]
 MP_Group               21
 MP_Bcast                5                     12.
 MP_Allreduce           98                     12.
 MP_Alltoall           330                   2229.
 MP_Wait               240
 MP_ISend               40                     60.
 MP_IRecv               40                     60.
 MP_Memory             340
 -------------------------------------------------------------------------------

 MEMORY| Estimated peak process memory [MiB]                                 926

 -------------------------------------------------------------------------------
 ----                             MULTIGRID INFO                            ----
 -------------------------------------------------------------------------------
 count for grid        1:           7137          cutoff [a.u.]          140.00
 count for grid        2:           3256          cutoff [a.u.]           46.67
 count for grid        3:           1643          cutoff [a.u.]           15.56
 count for grid        4:           1099          cutoff [a.u.]            5.19
 total gridlevel count  :          13135

 -------------------------------------------------------------------------------
 -                                                                             -
 -                         MESSAGE PASSING PERFORMANCE                         -
 -                                                                             -
 -------------------------------------------------------------------------------

 ROUTINE             CALLS      AVE VOLUME [Bytes]
 MP_Group                4
 MP_Bcast               20                      4.
 MP_Allreduce           98                    527.
 MP_Sync                16
 -------------------------------------------------------------------------------


 -------------------------------------------------------------------------------
 -                                                                             -
 -                           R E F E R E N C E S                               -
 -                                                                             -
 -------------------------------------------------------------------------------
 
 CP2K version 7.0 (Development Version), the CP2K developers group (2018).
 CP2K is freely available from https://www.cp2k.org/ .

 Schuett, Ole; Messmer, Peter; Hutter, Juerg; VandeVondele, Joost. 
 Electronic Structure Calculations on Graphics Processing Units, John Wiley & Sons, Ltd, 173-190 (2016). 
 GPU-Accelerated Sparse Matrix-Matrix Multiplication for Linear Scaling Density Functional Theory.
 https://dx.doi.org/10.1002/9781118670712.ch8


 Borstnik, U; VandeVondele, J; Weber, V; Hutter, J. 
 PARALLEL COMPUTING, 40 (5-6), 47-58 (2014). 
 Sparse matrix multiplication: The distributed block-compressed sparse
 row library.
 https://dx.doi.org/10.1016/j.parco.2014.03.012


 Hutter, J; Iannuzzi, M; Schiffmann, F; VandeVondele, J. 
 WILEY INTERDISCIPLINARY REVIEWS-COMPUTATIONAL MOLECULAR SCIENCE, 4 (1), 15-25 (2014). 
 CP2K: atomistic simulations of condensed matter systems.
 https://dx.doi.org/10.1002/wcms.1159


 Marek, A; Blum, V; Johanni, R; Havu, V; Lang, B; Auckenthaler, T;
 Heinecke, A; Bungartz, H; Lederer, H. 
 Journal of Physics: Condensed Matter, 26 (21), (2014). 
 The ELPA library: scalable parallel eigenvalue solutions for electronic structure
 theory and computational science.
 https://dx.doi.org/10.1088/0953-8984/26/21/213201


 VandeVondele, J; Hutter, J. 
 JOURNAL OF CHEMICAL PHYSICS, 127 (11), 114105 (2007). 
 Gaussian basis sets for accurate calculations on molecular systems in
 gas and condensed phases.
 https://dx.doi.org/10.1063/1.2770708


 Krack, M. 
 THEORETICAL CHEMISTRY ACCOUNTS, 114 (1-3), 145-152 (2005). 
 Pseudopotentials for H to Kr optimized for gradient-corrected
 exchange-correlation functionals.
 https://dx.doi.org/10.1007/s00214-005-0655-y


 VandeVondele, J; Krack, M; Mohamed, F; Parrinello, M; Chassaing, T;
 Hutter, J. COMPUTER PHYSICS COMMUNICATIONS, 167 (2), 103-128 (2005). 
 QUICKSTEP: Fast and accurate density functional calculations using a
 mixed Gaussian and plane waves approach.
 https://dx.doi.org/10.1016/j.cpc.2004.12.014


 Frigo, M; Johnson, SG. 
 PROCEEDINGS OF THE IEEE, 93 (2), 216-231 (2005). 
 The design and implementation of FFTW3.
 https://dx.doi.org/10.1109/JPROC.2004.840301


 Hartwigsen, C; Goedecker, S; Hutter, J. 
 PHYSICAL REVIEW B, 58 (7), 3641-3662 (1998). 
 Relativistic separable dual-space Gaussian pseudopotentials from H to Rn.
 https://dx.doi.org/10.1103/PhysRevB.58.3641


 Lippert, G; Hutter, J; Parrinello, M. 
 MOLECULAR PHYSICS, 92 (3), 477-487 (1997). 
 A hybrid Gaussian and plane wave density functional scheme.
 https://dx.doi.org/10.1080/002689797170220


 Perdew, JP; Burke, K; Ernzerhof, M. 
 PHYSICAL REVIEW LETTERS, 77 (18), 3865-3868 (1996). 
 Generalized gradient approximation made simple.
 https://dx.doi.org/10.1103/PhysRevLett.77.3865


 Goedecker, S; Teter, M; Hutter, J. 
 PHYSICAL REVIEW B, 54 (3), 1703-1710 (1996). 
 Separable dual-space Gaussian pseudopotentials.
 https://dx.doi.org/10.1103/PhysRevB.54.1703


 -------------------------------------------------------------------------------
 -                                                                             -
 -                                T I M I N G                                  -
 -                                                                             -
 -------------------------------------------------------------------------------
 SUBROUTINE                       CALLS  ASD         SELF TIME        TOTAL TIME
                                MAXIMUM       AVERAGE  MAXIMUM  AVERAGE  MAXIMUM
 CP2K                                 1  1.0    0.044    0.044   35.923   35.923
 qs_energies                          1  2.0    0.000    0.000   34.831   34.831
 scf_env_do_scf                       1  3.0    0.000    0.000   34.055   34.055
 scf_env_do_scf_inner_loop           10  4.0    0.001    0.001   34.055   34.055
 qs_ks_update_qs_env                 10  5.0    0.000    0.000   29.203   29.203
 rebuild_ks_matrix                   10  6.0    0.000    0.000   29.203   29.203
 qs_ks_build_kohn_sham_matrix        10  7.0    0.001    0.001   29.203   29.203
 qs_vxc_create                       10  8.0    0.000    0.000   23.181   23.181
 xc_vxc_pw_create                    10  9.0    0.385    0.385   23.181   23.181
 pw_transfer                        196  9.6    0.009    0.009   22.634   22.634
 fft_wrap_pw1pw2                    176 10.6    0.001    0.001   22.398   22.398
 fft_wrap_pw1pw2_140                113 11.8    2.367    2.367   21.836   21.836
 xc_rho_set_and_dset_create          10 10.0    0.132    0.132   13.836   13.836
 fft3d_s                            177 12.6   13.102   13.102   13.106   13.106
 xc_functional_eval                  10 11.0    0.000    0.000    7.314    7.314
 pbe_lda_eval                        10 12.0    7.314    7.314    7.314    7.314
 qs_rho_update_rho                   11  5.0    0.000    0.000    5.314    5.314
 calculate_rho_elec                  11  6.0    0.267    0.267    5.314    5.314
 density_rs2pw                       11  7.0    0.000    0.000    5.004    5.004
 pw_scatter_s                        91 13.2    3.483    3.483    3.483    3.483
 pw_gather_s                         85 12.0    3.404    3.404    3.404    3.404
 sum_up_and_integrate                10  8.0    0.067    0.067    2.685    2.685
 integrate_v_rspace                  10  9.0    0.075    0.075    2.619    2.619
 potential_pw2rs                     10 10.0    0.009    0.009    2.543    2.543
 pw_derive                           60 10.5    1.365    1.365    1.365    1.365
 pw_poisson_solve                    10  8.0    1.039    1.039    1.295    1.295
 qs_init_subsys                       1  2.0    0.001    0.001    1.017    1.017
 qs_env_setup                         1  3.0    0.000    0.000    1.012    1.012
 qs_env_rebuild_pw_env                2  3.5    0.000    0.000    1.012    1.012
 pw_env_rebuild                       1  5.0    0.000    0.000    1.012    1.012
 pw_grid_setup                        4  6.0    0.000    0.000    0.997    0.997
 pw_grid_setup_internal               4  7.0    0.014    0.014    0.997    0.997
 pw_grid_sort                         4  8.0    0.674    0.674    0.893    0.893
 pw_copy                            110 10.5    0.814    0.814    0.814    0.814
 -------------------------------------------------------------------------------

 The number of warnings for this run is : 0
 
 -------------------------------------------------------------------------------
  **** **** ******  **  PROGRAM ENDED AT                 2021-03-18 14:20:46.366
 ***** ** ***  *** **   PROGRAM RAN ON                              ws55.ethz.ch
 **    ****   ******    PROGRAM RAN BY                                  steinmig
 ***** **    ** ** **   PROGRAM PROCESS ID                                 19931
  **** **  *******  **  PROGRAM STOPPED IN /home/cds/steinmig/playground/cp2k-sp
