
                                 *****************
                                 * O   R   C   A *
                                 *****************

                                            #,                                       
                                            ###                                      
                                            ####                                     
                                            #####                                    
                                            ######                                   
                                           ########,                                 
                                     ,,################,,,,,                         
                               ,,#################################,,                 
                          ,,##########################################,,             
                       ,#########################################, ''#####,          
                    ,#############################################,,   '####,        
                  ,##################################################,,,,####,       
                ,###########''''           ''''###############################       
              ,#####''   ,,,,##########,,,,          '''####'''          '####       
            ,##' ,,,,###########################,,,                        '##       
           ' ,,###''''                  '''############,,,                           
         ,,##''                                '''############,,,,        ,,,,,,###''
      ,#''                                            '''#######################'''  
     '                                                          ''''####''''         
             ,#######,   #######,   ,#######,      ##                                
            ,#'     '#,  ##    ##  ,#'     '#,    #''#        ######   ,####,        
            ##       ##  ##   ,#'  ##            #'  '#       #        #'  '#        
            ##       ##  #######   ##           ,######,      #####,   #    #        
            '#,     ,#'  ##    ##  '#,     ,#' ,#      #,         ##   #,  ,#        
             '#######'   ##     ##  '#######'  #'      '#     #####' # '####'        



                  #######################################################
                  #                        -***-                        #
                  #          Department of theory and spectroscopy      #
                  #    Directorship and core code : Frank Neese         #
                  #        Max Planck Institute fuer Kohlenforschung    #
                  #                Kaiser Wilhelm Platz 1               #
                  #                 D-45470 Muelheim/Ruhr               #
                  #                      Germany                        #
                  #                                                     #
                  #                  All rights reserved                #
                  #                        -***-                        #
                  #######################################################


                         Program Version 5.0.3 -  RELEASE  -


 With contributions from (in alphabetic order):
   Daniel Aravena         : Magnetic Suceptibility
   Michael Atanasov       : Ab Initio Ligand Field Theory (pilot matlab implementation)
   Alexander A. Auer      : GIAO ZORA, VPT2 properties, NMR spectrum
   Ute Becker             : Parallelization
   Giovanni Bistoni       : ED, misc. LED, open-shell LED, HFLD
   Martin Brehm           : Molecular dynamics
   Dmytro Bykov           : SCF Hessian
   Vijay G. Chilkuri      : MRCI spin determinant printing, contributions to CSF-ICE
   Dipayan Datta          : RHF DLPNO-CCSD density
   Achintya Kumar Dutta   : EOM-CC, STEOM-CC
   Dmitry Ganyushin       : Spin-Orbit,Spin-Spin,Magnetic field MRCI
   Miquel Garcia          : C-PCM and meta-GGA Hessian, CC/C-PCM, Gaussian charge scheme
   Yang Guo               : DLPNO-NEVPT2, F12-NEVPT2, CIM, IAO-localization
   Andreas Hansen         : Spin unrestricted coupled pair/coupled cluster methods
   Benjamin Helmich-Paris : MC-RPA, TRAH-SCF, COSX integrals
   Lee Huntington         : MR-EOM, pCC
   Robert Izsak           : Overlap fitted RIJCOSX, COSX-SCS-MP3, EOM
   Marcus Kettner         : VPT2
   Christian Kollmar      : KDIIS, OOCD, Brueckner-CCSD(T), CCSD density, CASPT2, CASPT2-K
   Simone Kossmann        : Meta GGA functionals, TD-DFT gradient, OOMP2, MP2 Hessian
   Martin Krupicka        : Initial AUTO-CI
   Lucas Lang             : DCDCAS
   Marvin Lechner         : AUTO-CI (C++ implementation), FIC-MRCC
   Dagmar Lenk            : GEPOL surface, SMD
   Dimitrios Liakos       : Extrapolation schemes; Compound Job, initial MDCI parallelization
   Dimitrios Manganas     : Further ROCIS development; embedding schemes
   Dimitrios Pantazis     : SARC Basis sets
   Anastasios Papadopoulos: AUTO-CI, single reference methods and gradients
   Taras Petrenko         : DFT Hessian,TD-DFT gradient, ASA, ECA, R-Raman, ABS, FL, XAS/XES, NRVS
   Peter Pinski           : DLPNO-MP2, DLPNO-MP2 Gradient
   Christoph Reimann      : Effective Core Potentials
   Marius Retegan         : Local ZFS, SOC
   Christoph Riplinger    : Optimizer, TS searches, QM/MM, DLPNO-CCSD(T), (RO)-DLPNO pert. Triples
   Tobias Risthaus        : Range-separated hybrids, TD-DFT gradient, RPA, STAB
   Michael Roemelt        : Original ROCIS implementation
   Masaaki Saitow         : Open-shell DLPNO-CCSD energy and density
   Barbara Sandhoefer     : DKH picture change effects
   Avijit Sen             : IP-ROCIS
   Kantharuban Sivalingam : CASSCF convergence, NEVPT2, FIC-MRCI
   Bernardo de Souza      : ESD, SOC TD-DFT
   Georgi Stoychev        : AutoAux, RI-MP2 NMR, DLPNO-MP2 response
   Willem Van den Heuvel  : Paramagnetic NMR
   Boris Wezisla          : Elementary symmetry handling
   Frank Wennmohs         : Technical directorship


 We gratefully acknowledge several colleagues who have allowed us to
 interface, adapt or use parts of their codes:
   Stefan Grimme, W. Hujo, H. Kruse, P. Pracht,  : VdW corrections, initial TS optimization,
                  C. Bannwarth, S. Ehlert          DFT functionals, gCP, sTDA/sTD-DF
   Ed Valeev, F. Pavosevic, A. Kumar             : LibInt (2-el integral package), F12 methods
   Garnet Chan, S. Sharma, J. Yang, R. Olivares  : DMRG
   Ulf Ekstrom                                   : XCFun DFT Library
   Mihaly Kallay                                 : mrcc  (arbitrary order and MRCC methods)
   Jiri Pittner, Ondrej Demel                    : Mk-CCSD
   Frank Weinhold                                : gennbo (NPA and NBO analysis)
   Christopher J. Cramer and Donald G. Truhlar   : smd solvation model
   Lars Goerigk                                  : TD-DFT with DH, B97 family of functionals
   V. Asgeirsson, H. Jonsson                     : NEB implementation
   FAccTs GmbH                                   : IRC, NEB, NEB-TS, DLPNO-Multilevel, CI-OPT
                                                   MM, QMMM, 2- and 3-layer-ONIOM, Crystal-QMMM,
                                                   LR-CPCM, SF, NACMEs, symmetry and pop. for TD-DFT,
                                                   nearIR, NL-DFT gradient (VV10), updates on ESD,
                                                   ML-optimized integration grids
   S Lehtola, MJT Oliveira, MAL Marques          : LibXC Library
   Liviu Ungur et al                             : ANISO software


 Your calculation uses the libint2 library for the computation of 2-el integrals
 For citations please refer to: http://libint.valeyev.net

 Your ORCA version has been built with support for libXC version: 5.1.0
 For citations please refer to: https://tddft.org/programs/libxc/

 This ORCA versions uses:
   CBLAS   interface :  Fast vector & matrix operations
   LAPACKE interface :  Fast linear algebra routines
   SCALAPACK package :  Parallel linear algebra routines
   Shared memory     :  Shared parallel matrices
   BLAS/LAPACK       :  OpenBLAS 0.3.15  USE64BITINT DYNAMIC_ARCH NO_AFFINITY Zen SINGLE_THREADED
        Core in use  :  Zen
   Copyright (c) 2011-2014, The OpenBLAS Project




***************************************
The coordinates will be read from file: 3+_optimized.xyz
***************************************


Your calculation utilizes the atom-pairwise dispersion correction
with the Becke-Johnson damping scheme (D3BJ)
Cite in your paper:
S.Grimme, S.Ehrlich, L.Goerigk, J Comput Chem, (2011), 32, 1456–1465 
S.Grimme, J.Antony, S.Ehrlich and H.Krieg, J.Chem.Phys., 132, (2010), 154104 
   

================================================================================

----- Orbital basis set information -----
Your calculation utilizes the basis: def2-TZVP
   F. Weigend and R. Ahlrichs, Phys. Chem. Chem. Phys. 7, 3297 (2005).

The basis set includes element-specific modifications.

Your calculation utilizes the basis: CP(PPP) 

----- AuxJ basis set information -----
Your calculation utilizes the auxiliary basis: def2/J
   F. Weigend, Phys. Chem. Chem. Phys. 8, 1057 (2006).

================================================================================
                                        WARNINGS
                       Please study these warnings very carefully!
================================================================================


WARNING: Broken symmetry calculations need fully converged wavefunctions
  ===> : Setting SCFConvForced true
         You can overwrite this default with %scf ConvForced false 


INFO   : the flag for use of the SHARK integral package has been found!

================================================================================
                                       INPUT FILE
================================================================================
NAME = orca.inp
|  1> ! PBE D3BJ def2-TZVP
|  2> ! UHF
|  3> ! SlowConv
|  4> %maxcore 4000
|  5> %pal
|  6> nprocs 16
|  7> end
|  8> %output
|  9> print[P_Hirshfeld] 1
| 10> end
| 11> %SCF
| 12> TolE 1e-07
| 13> MaxIter 1500
| 14> Flipspin 0, 1
| 15> FinalMs 0.5
| 16> end
| 17> %basis NewGTO 26 "CP(PPP)" end
| 18> end
| 19> # Orca calculation created by SCINE
| 20> *xyzfile 0 20 3+_optimized.xyz
| 21> 
| 22> %eprnmr nuclei = all Fe {rho, fgrad}
| 23> end
| 24> 
| 25>                          ****END OF INPUT****
================================================================================

                       ****************************
                       * Single Point Calculation *
                       ****************************

---------------------------------
CARTESIAN COORDINATES (ANGSTROEM)
---------------------------------
  Fe    13.255755   13.559637    5.342603
  Fe    15.379220   12.771329    7.159355
  Fe    14.530677   11.148221    5.104665
  Fe    12.919269   11.519656    7.199263
  K     13.011163    8.209530    6.098387
  S     14.869418   10.583201    7.250401
  S     17.294082   12.892790    8.195724
  S     15.211368    9.365731    3.957614
  S     15.351534   13.233821    4.915585
  S     13.400154   13.635037    7.669120
  S     12.343161   11.506142    5.056322
  S     11.645282   10.109911    8.336791
  S     12.272677   15.531260    5.388831
  C     11.632784   16.255720    3.911863
  C     16.938077   13.639160   10.807326
  C     11.451303   18.356023    5.302481
  C     17.139251   15.487326    9.194156
  C     11.479350   15.579610    2.683771
  C     16.924965    8.934551    4.213150
  C     17.291977    7.868365    5.071093
  C     17.926750    9.598555    3.464174
  C     16.345373    7.206688    6.014777
  C     11.235744   17.616868    4.024133
  C     17.186487   15.966695    7.784235
  C     13.225224   13.872326    2.111800
  C     10.676597   18.261942    2.919686
  H     10.375573   19.306416    3.021831
  C     16.837151   12.177588   11.095008
  C     10.918963   16.265796    1.596677
  H     10.808038   15.732902    0.649790
  C     17.664440   10.800198    2.621401
  C     11.892235   14.166370    2.468630
  C     14.676706    5.521628    6.531582
  H     14.036365    4.700475    6.199308
  C     14.676544    5.890541    7.884653
  C     15.535954    6.921196    8.284064
  H     15.556366    7.227628    9.332719
  C     12.629830   19.109480    5.476792
  C     17.091409   14.101214    9.479379
  C     15.492672    6.166419    5.588544
  C     17.367371    8.594269    7.893232
  H     17.552446    9.387423    7.159059
  H     18.341482    8.124538    8.106829
  H     17.011167    9.056594    8.822029
  C      9.883171   10.319932    8.231958
  C     15.471111    5.734728    4.146310
  H     14.796601    4.880659    4.000672
  H     16.476009    5.447949    3.803208
  H     15.142499    6.559024    3.493035
  C     15.572515   11.562991   11.159817
  C     16.392108    7.567561    7.382211
  C     19.251335    9.145806    3.536896
  H     20.008247    9.668127    2.948638
  C     17.067155   16.390434   10.261786
  H     17.106220   17.460146   10.045915
  C     15.498631   10.185670   11.409346
  H     14.514139    9.710126   11.437502
  C     10.512538   17.594035    1.705451
  H     10.076572   18.107285    0.847220
  C      9.102946    9.272955    7.681685
  C     10.699292    5.854039    5.567522
  C     18.369454   15.858936    7.021546
  C     14.264624   14.957713    2.066989
  H     14.119456   15.603684    1.185555
  H     15.267536   14.520198    2.014230
  H     14.216343   15.604316    2.953504
  C     12.860235   19.736698    6.705259
  H     13.787532   20.300292    6.842963
  C      9.241849   11.456878    8.780076
  C     18.014853   12.068540    3.125253
  C     10.020246   13.780020    8.367405
  C     10.499992   18.284295    6.339584
  C     18.007011   11.413468   11.292110
  C     19.604768    8.061014    4.334208
  H     20.637966    7.712357    4.367761
  C     10.294945    7.010857    4.885684
  H     10.360213    7.040788    3.793706
  C     17.888552   10.047229   11.559035
  H     18.798295    9.459899   11.713890
  C      9.976461   12.670837    9.235113
  C     11.951322   19.643298    7.763460
  C     10.596058    5.847991    6.964355
  H     10.904380    4.957528    7.517634
  C     18.626964    7.442380    5.107836
  H     18.889991    6.615292    5.770634
  C      9.702165    8.103613    6.971822
  C     10.643513   14.957856    8.798445
  H     10.712704   15.803019    8.109168
  C     11.164760   13.943895   10.910497
  H     11.613322   14.001312   11.905742
  C     17.178754   10.667117    1.303866
  C     16.015454   16.493539    7.198303
  C     10.915821   13.146047    2.464188
  C      9.786878    8.130859    5.559967
  C     10.767694   18.927550    7.552719
  H     10.034826   18.854070    8.361376
  C     11.228227   15.057607   10.063766
  C      9.439011   13.694210    6.981057
  H      9.770857   12.778182    6.470834
  H      9.762641   14.549749    6.377761
  H      8.338669   13.669716    6.996950
  C     13.558478   12.563362    1.732839
  H     14.595393   12.335711    1.474058
  C     14.310063   12.358354   10.986530
  H     14.400449   13.111217   10.192389
  H     14.058030   12.905926   11.909501
  H     13.459464   11.709722   10.740836
  C     13.797461    5.195219    8.890720
  H     13.058955    5.886170    9.326848
  H     14.393049    4.796925    9.725542
  H     13.252008    4.357309    8.437120
  C     10.104512    6.951127    7.679128
  C     19.364266   12.054138   11.185351
  H     19.454952   12.926960   11.848442
  H     19.542579   12.417074   10.160639
  H     20.158637   11.339618   11.437768
  C     16.544514    7.939141   11.920699
  H     16.886881    7.717478   12.943617
  H     17.172527    7.346571   11.238054
  H     15.509460    7.582054   11.831848
  C     18.557759   12.235698    4.520738
  H     19.630259   11.985944    4.563800
  H     18.050608   11.574270    5.236029
  H     18.435816   13.268677    4.872182
  C     17.402764   13.082124    0.983978
  C     17.870358   13.189225    2.295780
  H     18.135361   14.171448    2.694282
  C     16.641666    9.412172   11.622034
  C     16.863060   14.575938   11.843841
  H     16.742721   14.218756   12.868908
  C     12.596885   11.553964    1.672008
  C     11.284378   11.863601    2.054654
  H     10.524512   11.077129    2.041244
  C     16.937282   15.943980   11.577397
  H     16.883965   16.663625   12.396032
  C     10.547567   12.751730   10.521036
  C     11.201341    4.651247    4.812206
  H     11.939671    4.931708    4.046424
  H     10.375132    4.143139    4.290628
  H     11.666945    3.918989    5.485377
  C      9.210935   17.531873    6.147098
  H      8.510970   18.101836    5.515069
  H      8.719191   17.334759    7.108555
  H      9.381703   16.570838    5.643862
  C     17.051494   11.811018    0.510952
  H     16.676095   11.705748   -0.510966
  C     14.762977   16.737926    7.996711
  H     14.652652   16.023615    8.820691
  H     13.871980   16.677224    7.357631
  H     14.774664   17.747651    8.439202
  C     13.629406   19.253155    4.359474
  H     13.762532   18.310534    3.809677
  H     14.605566   19.575511    4.745064
  H     13.294290   19.998483    3.620154
  C     10.494300   11.578291   11.460471
  H      9.459462   11.242199   11.625694
  H     10.935461   11.832038   12.433131
  H     11.045853   10.719066   11.044646
  C     19.650991   15.363307    7.636389
  H     19.612143   14.273120    7.794514
  H     19.834666   15.824331    8.617642
  H     20.506858   15.580859    6.983418
  C      9.344129    9.341059    4.782093
  H      9.835386   10.254287    5.146705
  H      8.260528    9.503477    4.883119
  H      9.581373    9.229372    3.715937
  C     16.027140   16.819932    5.836709
  H     15.100970   17.176572    5.383559
  C     10.017379    6.910335    9.179175
  H     10.301519    5.924165    9.568108
  H      8.999398    7.141929    9.524674
  H     10.679554    7.668368    9.626536
  C     18.342529   16.223975    5.672122
  H     19.263582   16.143169    5.087288
  C      7.841227   11.486366    8.831343
  H      7.360192   12.365534    9.264416
  C      7.705792    9.343855    7.749452
  H      7.118869    8.526134    7.325633
  C      9.507366   13.429780    2.908901
  H      9.017909   14.176613    2.266160
  H      9.499774   13.840448    3.929851
  H      8.902305   12.513812    2.902550
  C     11.939286   16.312579   10.492953
  H     11.909092   17.073680    9.701122
  H     12.996448   16.106956   10.722215
  H     11.487506   16.740448   11.401277
  C     12.257447   20.259890    9.102315
  H     12.862612   19.574039    9.718667
  H     11.339074   20.479009    9.663924
  H     12.828988   21.192599    8.995756
  C     16.826352    9.313166    0.750430
  H     16.479128    9.390367   -0.288366
  H     16.033143    8.840880    1.350627
  H     17.692289    8.633774    0.774862
  C      7.071333   10.434625    8.340081
  H      5.982273   10.472860    8.399846
  C     17.174426   16.682925    5.052904
  C     17.299423   14.290160    0.091031
  H     17.363234   15.222535    0.668253
  H     16.351406   14.299054   -0.466723
  H     18.113655   14.302459   -0.651521
  C     12.956481   10.157674    1.250291
  H     13.066761    9.501492    2.129364
  H     13.915721   10.136154    0.718054
  H     12.181298    9.722147    0.602285
  C     17.150931   17.000761    3.581926
  H     16.845085   16.118394    2.997808
  H     18.142331   17.308079    3.220933
  H     16.433673   17.801714    3.353205

----------------------------
CARTESIAN COORDINATES (A.U.)
----------------------------
  NO LB      ZA    FRAG     MASS         X           Y           Z
   0 Fe   26.0000    0    55.850   25.049746   25.624000   10.096056
   1 Fe   26.0000    0    55.850   29.062513   24.134313   13.529220
   2 Fe   26.0000    0    55.850   27.458999   21.067084    9.646420
   3 Fe   26.0000    0    55.850   24.413881   21.768995   13.604636
   4 K    19.0000    0    39.100   24.587535   15.513763   11.524281
   5 S    16.0000    0    32.060   28.099127   19.999351   13.701272
   6 S    16.0000    0    32.060   32.681079   24.363843   15.487674
   7 S    16.0000    0    32.060   28.745320   17.698667    7.478807
   8 S    16.0000    0    32.060   29.010195   25.008297    9.289110
   9 S    16.0000    0    32.060   25.322621   25.766485   14.492536
  10 S    16.0000    0    32.060   23.325194   21.743457    9.555063
  11 S    16.0000    0    32.060   22.006394   19.104962   15.754252
  12 S    16.0000    0    32.060   23.191998   29.349827   10.183414
  13 C     6.0000    0    12.011   21.982777   30.718858    7.392349
  14 C     6.0000    0    12.011   32.008326   25.774277   20.422887
  15 C     6.0000    0    12.011   21.639827   34.687857   10.020237
  16 C     6.0000    0    12.011   32.388491   29.266804   17.374437
  17 C     6.0000    0    12.011   21.692827   29.441195    5.071592
  18 C     6.0000    0    12.011   31.983549   16.883855    7.961700
  19 C     6.0000    0    12.011   32.677101   14.869055    9.582978
  20 C     6.0000    0    12.011   33.876648   18.138640    6.546341
  21 C     6.0000    0    12.011   30.888279   13.618666   11.366281
  22 C     6.0000    0    12.011   21.232478   33.291057    7.604509
  23 C     6.0000    0    12.011   32.477754   30.172681   14.710073
  24 C     6.0000    0    12.011   24.992051   26.214897    3.990724
  25 C     6.0000    0    12.011   20.175845   34.510070    5.517407
  26 H     1.0000    0     1.008   19.606991   36.483839    5.710433
  27 C     6.0000    0    12.011   31.817603   23.012305   20.966527
  28 C     6.0000    0    12.011   20.633850   30.737900    3.017283
  29 H     1.0000    0     1.008   20.424233   29.730876    1.227924
  30 C     6.0000    0    12.011   33.380954   20.409417    4.953730
  31 C     6.0000    0    12.011   22.473067   26.770559    4.665034
  32 C     6.0000    0    12.011   27.734955   10.434364   12.342901
  33 H     1.0000    0     1.008   26.524886    8.882610   11.714995
  34 C     6.0000    0    12.011   27.734650   11.131509   14.899834
  35 C     6.0000    0    12.011   29.358698   13.079165   15.654612
  36 H     1.0000    0     1.008   29.397272   13.658237   17.636283
  37 C     6.0000    0    12.011   23.866920   36.111684   10.349636
  38 C     6.0000    0    12.011   32.298082   26.647432   17.913430
  39 C     6.0000    0    12.011   29.276908   11.652842   10.560818
  40 C     6.0000    0    12.011   32.819575   16.240814   14.916047
  41 H     1.0000    0     1.008   33.169315   17.739659   13.528660
  42 H     1.0000    0     1.008   34.660378   15.353152   15.319686
  43 H     1.0000    0     1.008   32.146447   17.114483   16.671220
  44 C     6.0000    0    12.011   18.676487   19.501846   15.556147
  45 C     6.0000    0    12.011   29.236162   10.837065    7.835391
  46 H     1.0000    0     1.008   27.961524    9.223109    7.560175
  47 H     1.0000    0     1.008   31.135144   10.295132    7.187021
  48 H     1.0000    0     1.008   28.615177   12.394759    6.600880
  49 C     6.0000    0    12.011   29.427788   21.850887   21.088997
  50 C     6.0000    0    12.011   30.976594   14.300618   13.950358
  51 C     6.0000    0    12.011   36.379752   17.283068    6.683765
  52 H     1.0000    0     1.008   37.810107   18.270112    5.572119
  53 C     6.0000    0    12.011   32.252248   30.973432   19.391966
  54 H     1.0000    0     1.008   32.326071   32.994894   18.984028
  55 C     6.0000    0    12.011   29.288169   19.248126   21.560538
  56 H     1.0000    0     1.008   27.427747   18.349480   21.613746
  57 C     6.0000    0    12.011   19.865819   33.247908    3.222835
  58 H     1.0000    0     1.008   19.041961   34.217811    1.601014
  59 C     6.0000    0    12.011   17.202074   17.523346   14.516280
  60 C     6.0000    0    12.011   20.218732   11.062531   10.521092
  61 C     6.0000    0    12.011   34.713237   29.969046   13.268800
  62 C     6.0000    0    12.011   26.956233   28.265981    3.906044
  63 H     1.0000    0     1.008   26.681905   29.486690    2.240375
  64 H     1.0000    0     1.008   28.851463   27.439198    3.806343
  65 H     1.0000    0     1.008   26.864994   29.487884    5.581314
  66 C     6.0000    0    12.011   24.302322   37.296953   12.671103
  67 H     1.0000    0     1.008   26.054660   38.361993   12.931326
  68 C     6.0000    0    12.011   17.464563   21.650361   16.591938
  69 C     6.0000    0    12.011   34.043138   22.806235    5.905873
  70 C     6.0000    0    12.011   18.935520   26.040464   15.812105
  71 C     6.0000    0    12.011   19.842110   34.552309   11.980077
  72 C     6.0000    0    12.011   34.028320   21.568328   21.338995
  73 C     6.0000    0    12.011   37.047643   15.233110    8.190467
  74 H     1.0000    0     1.008   39.000103   14.574242    8.253872
  75 C     6.0000    0    12.011   19.454627   13.248600    9.232604
  76 H     1.0000    0     1.008   19.577966   13.305161    7.169065
  77 C     6.0000    0    12.011   33.804464   18.986511   21.843411
  78 H     1.0000    0     1.008   35.523629   17.876618   22.136045
  79 C     6.0000    0    12.011   18.852779   23.944412   17.451834
  80 C     6.0000    0    12.011   22.584725   37.120454   14.670814
  81 C     6.0000    0    12.011   20.023649   11.051102   13.160723
  82 H     1.0000    0     1.008   20.606292    9.368370   14.206269
  83 C     6.0000    0    12.011   35.199862   14.064060    9.652412
  84 H     1.0000    0     1.008   35.696910   12.501090   10.904918
  85 C     6.0000    0    12.011   18.334435   15.313610   13.174835
  86 C     6.0000    0    12.011   20.113324   28.266251   16.626651
  87 H     1.0000    0     1.008   20.244076   29.863377   15.324107
  88 C     6.0000    0    12.011   21.098339   26.350142   20.617851
  89 H     1.0000    0     1.008   21.945998   26.458646   22.498591
  90 C     6.0000    0    12.011   32.463141   20.157929    2.463950
  91 C     6.0000    0    12.011   30.264823   31.168271   13.602821
  92 C     6.0000    0    12.011   20.627912   24.842428    4.656640
  93 C     6.0000    0    12.011   18.494520   15.365096   10.506815
  94 C     6.0000    0    12.011   20.347992   35.767885   14.272571
  95 H     1.0000    0     1.008   18.963073   35.629029   15.800711
  96 C     6.0000    0    12.011   21.218274   28.454754   19.017761
  97 C     6.0000    0    12.011   17.837147   25.878307   13.192286
  98 H     1.0000    0     1.008   18.464245   24.147264   12.228104
  99 H     1.0000    0     1.008   18.448718   27.495041   12.052221
 100 H     1.0000    0     1.008   15.757801   25.832020   13.222320
 101 C     6.0000    0    12.011   25.621810   23.741314    3.274591
 102 H     1.0000    0     1.008   27.581296   23.311116    2.785566
 103 C     6.0000    0    12.011   27.042100   23.353904   20.761534
 104 H     1.0000    0     1.008   27.212904   24.776609   19.260824
 105 H     1.0000    0     1.008   26.565826   24.388665   22.505696
 106 H     1.0000    0     1.008   25.434702   22.128167   20.297238
 107 C     6.0000    0    12.011   26.073422    9.817542   16.801026
 108 H     1.0000    0     1.008   24.677848   11.123249   17.625189
 109 H     1.0000    0     1.008   27.198920    9.064875   18.378610
 110 H     1.0000    0     1.008   25.042665    8.234121   15.943845
 111 C     6.0000    0    12.011   19.094760   13.135727   14.511449
 112 C     6.0000    0    12.011   36.593160   22.779020   21.137250
 113 H     1.0000    0     1.008   36.764531   24.428413   22.390311
 114 H     1.0000    0     1.008   36.930121   23.464869   19.200826
 115 H     1.0000    0     1.008   38.094303   21.428772   21.614248
 116 C     6.0000    0    12.011   31.264600   15.002803   22.526857
 117 H     1.0000    0     1.008   31.911580   14.583920   24.459891
 118 H     1.0000    0     1.008   32.451373   13.883008   21.236845
 119 H     1.0000    0     1.008   29.308632   14.328005   22.358952
 120 C     6.0000    0    12.011   35.069082   23.122118    8.542957
 121 H     1.0000    0     1.008   37.095814   22.650152    8.624333
 122 H     1.0000    0     1.008   34.110706   21.872201    9.894661
 123 H     1.0000    0     1.008   34.838644   25.074166    9.207090
 124 C     6.0000    0    12.011   32.886458   24.721631    1.859449
 125 C     6.0000    0    12.011   33.770082   24.924023    4.338396
 126 H     1.0000    0     1.008   34.270866   26.780156    5.091454
 127 C     6.0000    0    12.011   31.448192   17.786427   21.962462
 128 C     6.0000    0    12.011   31.866564   27.544531   22.381616
 129 H     1.0000    0     1.008   31.639157   26.869555   24.318712
 130 C     6.0000    0    12.011   23.804663   21.833828    3.159636
 131 C     6.0000    0    12.011   21.324384   22.418957    3.882733
 132 H     1.0000    0     1.008   19.888446   20.932741    3.857393
 133 C     6.0000    0    12.011   32.006824   30.129756   21.878110
 134 H     1.0000    0     1.008   31.906069   31.489688   23.425105
 135 C     6.0000    0    12.011   19.932012   24.097277   19.881877
 136 C     6.0000    0    12.011   21.167466    8.789583    9.093752
 137 H     1.0000    0     1.008   22.562708    9.319578    7.646634
 138 H     1.0000    0     1.008   19.606158    7.829398    8.108111
 139 H     1.0000    0     1.008   22.047331    7.405816   10.365860
 140 C     6.0000    0    12.011   17.406144   33.130439   11.616332
 141 H     1.0000    0     1.008   16.083403   34.207512   10.421969
 142 H     1.0000    0     1.008   16.476883   32.757947   13.433222
 143 H     1.0000    0     1.008   17.728849   31.314346   10.665354
 144 C     6.0000    0    12.011   32.222653   22.319588    0.965558
 145 H     1.0000    0     1.008   31.513252   22.120657   -0.965586
 146 C     6.0000    0    12.011   27.897984   31.630095   15.111594
 147 H     1.0000    0     1.008   27.689499   30.280245   16.668690
 148 H     1.0000    0     1.008   26.214243   31.515387   13.903907
 149 H     1.0000    0     1.008   27.920069   33.538201   15.947780
 150 C     6.0000    0    12.011   25.755845   36.383191    8.238211
 151 H     1.0000    0     1.008   26.007416   34.601895    7.199245
 152 H     1.0000    0     1.008   27.600521   36.992354    8.966872
 153 H     1.0000    0     1.008   25.122567   37.791655    6.841100
 154 C     6.0000    0    12.011   19.831352   21.879799   21.657151
 155 H     1.0000    0     1.008   17.875792   21.244677   21.969378
 156 H     1.0000    0     1.008   20.665027   22.359311   23.495213
 157 H     1.0000    0     1.008   20.873636   20.256099   20.871356
 158 C     6.0000    0    12.011   37.134991   29.032443   14.430683
 159 H     1.0000    0     1.008   37.061580   26.972288   14.729496
 160 H     1.0000    0     1.008   37.482086   29.903651   16.284983
 161 H     1.0000    0     1.008   38.752345   29.443556   13.196748
 162 C     6.0000    0    12.011   17.657844   17.652044    9.036846
 163 H     1.0000    0     1.008   18.586187   19.377794    9.725863
 164 H     1.0000    0     1.008   15.610136   17.958970    9.227757
 165 H     1.0000    0     1.008   18.106171   17.440985    7.022103
 166 C     6.0000    0    12.011   30.286906   31.785065   11.029781
 167 H     1.0000    0     1.008   28.536697   32.459017   10.173451
 168 C     6.0000    0    12.011   18.930104   13.058640   17.346126
 169 H     1.0000    0     1.008   19.467050   11.195049   18.081103
 170 H     1.0000    0     1.008   17.006398   13.496290   17.999025
 171 H     1.0000    0     1.008   20.181433   14.491116   18.191516
 172 C     6.0000    0    12.011   34.662356   30.658869   10.718757
 173 H     1.0000    0     1.008   36.402894   30.506168    9.613580
 174 C     6.0000    0    12.011   14.817772   21.706086   16.688819
 175 H     1.0000    0     1.008   13.908747   23.367473   17.507209
 176 C     6.0000    0    12.011   14.561836   17.657328   14.644343
 177 H     1.0000    0     1.008   13.452712   16.112058   13.843441
 178 C     6.0000    0    12.011   17.966318   25.378606    5.497026
 179 H     1.0000    0     1.008   17.041378   26.789917    4.282422
 180 H     1.0000    0     1.008   17.951971   26.154656    7.426342
 181 H     1.0000    0     1.008   16.822918   23.647677    5.485024
 182 C     6.0000    0    12.011   22.561981   30.826308   19.828807
 183 H     1.0000    0     1.008   22.504922   32.264579   18.332465
 184 H     1.0000    0     1.008   24.559727   30.437736   20.262050
 185 H     1.0000    0     1.008   21.708241   31.634862   21.545292
 186 C     6.0000    0    12.011   23.163217   38.285644   17.200882
 187 H     1.0000    0     1.008   24.306814   36.989573   18.365619
 188 H     1.0000    0     1.008   21.427744   38.699719   18.262170
 189 H     1.0000    0     1.008   24.243274   40.048208   16.999515
 190 C     6.0000    0    12.011   31.797198   17.599333    1.418107
 191 H     1.0000    0     1.008   31.141039   17.745223   -0.544933
 192 H     1.0000    0     1.008   30.298250   16.706843    2.552315
 193 H     1.0000    0     1.008   33.433580   16.315469    1.464276
 194 C     6.0000    0    12.011   13.362883   19.718584   15.760470
 195 H     1.0000    0     1.008   11.304858   19.790836   15.873409
 196 C     6.0000    0    12.011   32.454961   31.526159    9.548604
 197 C     6.0000    0    12.011   32.691171   27.004488    0.172023
 198 H     1.0000    0     1.008   32.811758   28.766422    1.262815
 199 H     1.0000    0     1.008   30.899680   27.021297   -0.881979
 200 H     1.0000    0     1.008   34.229847   27.027731   -1.231196
 201 C     6.0000    0    12.011   24.484201   19.195222    2.362707
 202 H     1.0000    0     1.008   24.692599   17.955217    4.023916
 203 H     1.0000    0     1.008   26.296901   19.154556    1.356926
 204 H     1.0000    0     1.008   23.019317   18.372195    1.138153
 205 C     6.0000    0    12.011   32.410563   32.126783    6.768858
 206 H     1.0000    0     1.008   31.832597   30.459351    5.665036
 207 H     1.0000    0     1.008   34.284037   32.707528    6.086681
 208 H     1.0000    0     1.008   31.055140   33.640364    6.336638

--------------------------------
INTERNAL COORDINATES (ANGSTROEM)
--------------------------------
 Fe     0   0   0     0.000000000000     0.00000000     0.00000000
 Fe     1   0   0     2.903639314399     0.00000000     0.00000000
 Fe     1   2   0     2.738059026935    58.31488666     0.00000000
 Fe     3   1   2     2.668695892490    61.83971661    69.75497900
 K      3   1   2     3.454317491550   121.29309017   104.62187186
 S      4   3   1     2.163941447893    54.13722333   223.03884181
 S      2   1   3     2.180713962347   157.57599822   120.96710340
 S      3   1   2     2.226283384196   153.16142889   204.32728589
 S      1   2   3     2.163513689209    51.25839439   294.20507636
 S      2   1   3     2.218682921775    52.10171823   227.28367764
 S      3   1   2     2.217130970469    53.15223379   132.95574499
 S      4   3   1     2.214586646955   131.44596911   148.01302670
 S      1   2   3     2.203604932952   123.78222432   184.07911681
 C     13   1   2     1.765145562676   120.75652516   149.54683663
 C      7   2   1     2.739392801707   110.74038525   106.30053665
 C     14  13   1     2.525476245654    84.64305686   192.45806400
 C     15   7   2     2.461403566661    64.47801716   273.07676129
 C     14  13   1     1.410275421354   124.84257382    11.61431631
 C      8   3   1     1.785392976661   114.39823593   132.65235123
 C     19   8   3     1.416868791891   121.13191637   101.55452244
 C     19   8   3     1.416135311153   119.34225949   276.44007722
 C     20  19   8     1.491446667307   123.54352266   347.73525745
 C     14  13   1     1.422312249111   115.33590263   190.53242710
 C     17  15   7     1.489933435616   149.80993797    10.50314518
 C     18  14  13     2.507996082936   116.69347984   324.58291275
 C     23  14  13     1.395911304453   119.44631784   182.09156535
 H     26  23  14     1.091775999569   118.58839138   179.91927569
 C     15   7   2     1.493030617359    85.74258452    90.24449144
 C     18  14  13     1.402375530104   118.94273564   178.09647055
 H     29  18  14     1.092188883556   118.28769218   179.80750775
 C     21  19   8     1.490979530579   123.53120463    10.23392976
 C     25  18  14     1.410903343658    30.99301102   111.38100343
 C     22  20  19     2.427130956493   151.53219941    88.19958976
 H     33  22  20     1.093039298935   149.27223407   355.77113817
 C     33  22  20     1.402461436677    91.31139324   173.74341107
 C     35  33  22     1.400129999912   117.95530407   359.42360182
 H     36  35  33     1.092700600269   119.45022250   180.06095178
 C     16  14  13     1.409612246648   116.90660826    80.60519040
 C     15   7   2     1.414372270977    34.89744137   274.54113113
 C     33  22  20     1.403878796091    30.51522891   353.25735151
 C     36  35  33     2.511177252833   153.34081055   353.69733905
 H     41  36  35     1.096520853006   135.17188615    53.36045148
 H     41  36  35     1.102343971118   109.29357631   271.52588367
 H     41  36  35     1.096945963270    84.96291897   164.61606786
 C     12   4   3     1.777676438560   117.69310684   246.83670917
 C     40  33  22     1.505609691261   120.22844942   179.00835772
 H     46  40  33     1.098001153027   111.03122872   357.81609712
 H     46  40  33     1.099900565952   111.12983314   236.96755169
 H     46  40  33     1.101915520532   110.95811589   118.77589073
 C     28  15   7     1.407562585576   119.80464270   264.78913153
 C     36  35  33     1.401472791400   122.06630968   359.16403469
 C     21  19   8     1.401712006485   119.31406239   188.10539390
 H     52  21  19     1.091687636665   118.20944830   179.73010868
 C     17  15   7     1.400227628034    88.87481340   183.17728147
 H     54  17  15     1.091974752199   118.63637903   180.68235486
 C     50  28  15     1.401691353694   118.98637487   178.96790095
 H     56  50  28     1.093691015426   118.63817906   181.27700524
 C     29  18  14     1.393280935447   121.50054747   359.96309434
 H     58  29  18     1.090895766475   120.24370879   180.16541003
 C     45  12   4     1.416938136574   118.77856400   117.96387315
 C      5   3   1     3.342887983719   149.09064016    72.32112401
 C     24  17  15     1.411636400401   120.88256419   280.46496361
 C     25  18  14     1.503471431145    89.80595782   296.15652300
 H     63  25  18     1.102396686518   110.84351755   289.17822869
 H     63  25  18     1.095461211881   110.24504051   169.11818508
 H     63  25  18     1.098333228701   111.74996837    48.60397820
 C     38  16  14     1.398435056558   119.08554772   216.69089549
 H     67  38  16     1.093837615008   118.77414802   178.56095153
 C     45  12   4     1.415758624358   121.40393327   292.88645964
 C     31  21  19     1.409023355944   118.65892743   101.34955214
 C     69  45  12     2.484589955509   123.00154495    48.52309247
 C     16  14  13     1.409155940050   114.29494605   292.93109686
 C     28  15   7     1.411135083149   120.06330695    84.35331487
 C     52  21  19     1.391902870097   121.42607836   359.70909184
 H     74  52  21     1.090955924267   120.47544659   179.08647740
 C     61   5   3     1.402364926704    72.26382131   337.93656923
 H     76  61   5     1.094335918883   119.37498984   107.33973761
 C     73  28  15     1.397100721592   119.07311151   180.04924346
 H     78  73  28     1.093877988254   118.78959631   180.17268690
 C     71  69  45     1.408942916116    31.99281879   259.33428616
 C     67  38  16     1.398083349776   121.85861297   359.66572110
 C     61   5   3     1.400655348764    84.00992410   216.14996461
 H     82  61   5     1.092750702284   119.18680891   246.26072848
 C     74  52  21     1.391872436378   119.10412752   357.88975383
 H     84  74  52     1.092043353258   120.31578172   182.44231562
 C     60  45  12     1.493428751098   122.83413900   349.12332022
 C     71  69  45     1.400554815206   151.00158066   253.34203950
 H     87  71  69     1.092789779465   118.97756495   181.13507400
 C     87  71  69     2.400121046842    90.69840821     3.60507683
 H     89  87  71     1.093168021336   150.23578781   179.70965964
 C     31  21  19     1.410496302510   120.83268268   276.16873089
 C     24  17  15     1.411452762308   119.11893134    98.36458257
 C     32  25  18     1.412254490022   120.12181935   172.35348757
 C     76  61   5     1.402566506977   121.96624018   286.33173788
 C     72  16  14     1.398977733198   119.05305692   144.21399100
 H     95  72  16     1.093809911412   118.81571365   181.10450088
 C     87  71  69     1.397454179473   121.66105378     3.95963472
 C     71  69  45     1.505708586335    88.77966361    75.08792308
 H     98  71  69     1.099798819201   110.98599795   309.96459248
 H     98  71  69     1.095741544835   110.39123429   190.49384826
 H     98  71  69     1.100729751940   111.95376526    69.25684165
 C     25  18  14     1.402874219087   149.55741273   126.52621093
 H    102  25  18     1.092697151798   118.93327734   172.19623790
 C     50  28  15     1.502136307455   121.23782302   358.08552410
 H    104  50  28     1.098013154976   112.16653279    40.47788862
 H    104  50  28     1.102375317628   111.01229909   281.48145576
 H    104  50  28     1.097546257194   111.36110911   161.50328925
 C     35  33  22     1.506131320533   121.53947829   180.23006055
 H    108  35  33     1.101368241682   111.48499656   243.36278481
 H    108  35  33     1.100131912520   110.98007347   124.39491296
 H    108  35  33     1.097891352575   111.48987329     4.17063655
 C     82  61   5     1.403363172898   122.02980166    66.42711138
 C     73  28  15     1.504658517945   120.48634550   358.66581834
 H    113  73  28     1.099877626636   111.68416435    54.53570826
 H    113  73  28     1.101613045648   110.62727816   295.94579298
 H    113  73  28     1.097851508320   111.05418814   175.86813887
 C     78  73  28     2.526118351137   152.69141678     0.25585401
 H    117  78  73     1.101231054952    97.79052007   239.96636329
 H    117  78  73     1.100701741991    93.26222884   132.42961786
 H    117  78  73     1.098518374640   139.55320611     9.11470222
 C     70  31  21     1.506674072980   121.37791012   355.88602668
 H    121  70  31     1.102038232991   111.20614540    80.13650452
 H    121  70  31     1.098330601147   111.71539646   321.03241909
 H    121  70  31     1.097920074571   111.15171214   200.48660140
 C     91  31  21     2.446378787489    89.85508415   185.50443735
 C    125  91  31     1.396760472301    89.05703416   359.52347765
 H    126 125  91     1.092607892150   119.51609056   180.48296602
 C     56  50  28     1.396447085570   121.88680278     1.32046051
 C     15   7   2     1.399122631081   153.59386199   266.53983724
 H    129  15   7     1.092164028568   118.83295922   185.10016367
 C    102  25  18     1.395437275060   121.53462042   352.59573250
 C     93  32  25     1.395786424014   118.82749466   357.64873113
 H    132  93  32     1.093669632174   118.74152851   180.66579871
 C     54  17  15     1.395357011050   121.15280606     0.17851903
 H    134  54  17     1.091280887549   120.05549734   179.92449481
 C     89  87  71     1.397807120289    91.10222323   359.77562964
 C     61   5   3     1.506407873457   114.31472953    94.30612464
 H    137  61   5     1.100096525229   111.66301535   324.00701581
 H    137  61   5     1.101289769113   110.84391931   204.87679022
 H    137  61   5     1.098247356885   111.48925093    85.15902791
 C     72  16  14     1.504944517628   120.63492396   323.98352333
 H    141  72  16     1.101938421045   111.02950799   284.60310589
 H    141  72  16     1.097754848771   111.18907638   164.20422781
 H    141  72  16     1.098178377089   111.28118803    43.38994037
 C     91  31  21     1.397647307348   118.95106295   185.24269733
 H    145  91  31     1.093765040068   118.85102353   179.91116742
 C     92  24  17     1.505284037598   122.05552911     7.34805154
 H    147  92  24     1.096062861918   112.12838580   328.82730228
 H    147  92  24     1.098173430627   110.94312165   207.14040905
 H    147  92  24     1.102488598570   110.65581090    88.49908767
 C     38  16  14     1.506052502555   120.94081421    37.16121225
 H    151  38  16     1.099333306867   111.69118367   319.82575077
 H    151  38  16     1.097944312556   110.94991245   198.44441768
 H    151  38  16     1.102002365120   111.12549133    78.39072040
 C    136  89  87     1.504105783929   120.46400517   180.46674773
 H    155 136  89     1.100520608288   111.42760635   123.99371195
 H    155 136  89     1.097761316375   111.02883764     3.06739905
 H    155 136  89     1.102446745353   110.77749805   242.74529527
 C     62  24  17     1.505329354435   121.19037948   354.90954492
 H    159  62  24     1.102279661591   110.74605262    74.41058595
 H    159  62  24     1.099607968938   111.63197453   315.28416245
 H    159  62  24     1.098274488618   110.81630468   194.22073083
 C     94  76  61     1.505224492784   120.00866602   181.03235693
 H    163  94  76     1.099209161255   111.41310884   233.59911724
 H    163  94  76     1.100352622157   111.15496925   114.76046377
 H    163  94  76     1.097928460736   110.88423793   354.00231347
 C     92  24  17     1.400216864962   118.93132561   186.24473184
 H    167  92  24     1.091022112255   118.22927644   176.82262247
 C    112  82  61     1.503128488098   120.48120940   180.41534606
 H    169 112  82     1.097513267951   111.28627133   355.61692328
 H    169 112  82     1.099677560601   111.19133027   234.51402153
 H    169 112  82     1.101463636377   110.59702089   116.41029207
 C     62  24  17     1.398186100358   119.03718100   175.05146729
 H    173  62  24     1.094029087898   118.71349257   179.69337749
 C     69  45  12     1.401869465580   118.92314828   188.58633062
 H    175  69  45     1.091734813838   118.14270708   179.48093934
 C     60  45  12     1.400591880841   119.54424347   171.70722546
 H    177  60  45     1.092140230597   118.64680824   180.33820680
 C     93  32  25     1.504001335897   120.67963375   176.88769502
 H    179  93  32     1.100201684754   111.83507549    62.32555293
 H    179  93  32     1.100474939029   110.55948833   303.71287759
 H    179  93  32     1.097787475652   110.91805460   183.63601163
 C     97  87  71     1.504912916717   121.02741806   177.68351981
 H    183  97  87     1.098717756037   111.04802073     0.48213041
 H    183  97  87     1.101105033634   110.93369585   240.61256629
 H    183  97  87     1.101012952421   111.43666140   121.32221448
 C     81  67  38     1.505466575161   120.90195423   176.41974009
 H    187  81  67     1.102953886074   110.72364299   275.28537449
 H    187  81  67     1.098556894897   111.49065227   155.92705155
 H    187  81  67     1.099072414096   111.53642712    34.63815742
 C     91  31  21     1.504546963640   120.60776367     4.14108104
 H    191  91  31     1.098008311727   111.02663419   180.77940028
 H    191  91  31     1.101122117030   110.74477568    60.11936970
 H    191  91  31     1.100915761755   111.28148803   301.42545815
 C    175  69  45     1.392922541847   121.56370419   359.09417123
 H    195 175  69     1.091368585204   120.38338644   179.31842099
 C    167  92  24     1.396203811589   121.99748690   357.76732823
 C    125  91  31     1.505783922330   149.68162076   176.86801680
 H    198 125  91     1.098444578044   111.42996220   167.71299184
 H    198 125  91     1.099956270295   111.48975402    46.91283240
 H    198 125  91     1.102047299868   110.96603483   287.54512261
 C    131 102  25     1.502258576701   121.30668017   179.28760593
 H    202 131 102     1.102500510023   110.68954299   100.32461510
 H    202 131 102     1.097214072466   111.32585917   341.80063581
 H    202 131 102     1.100229456322   111.38382809   220.15428562
 C    197 167  92     1.505107585053   121.00443985   178.12488003
 H    206 197 167     1.101502186179   110.69788284   272.42434995
 H    206 197 167     1.098923228744   111.47037684   152.84831708
 H    206 197 167     1.099226260777   111.55612504    31.44185373

---------------------------
INTERNAL COORDINATES (A.U.)
---------------------------
 Fe     0   0   0     0.000000000000     0.00000000     0.00000000
 Fe     1   0   0     5.487083095902     0.00000000     0.00000000
 Fe     1   2   0     5.174181699417    58.31488666     0.00000000
 Fe     3   1   2     5.043104371527    61.83971661    69.75497900
 K      3   1   2     6.527714038642   121.29309017   104.62187186
 S      4   3   1     4.089256706358    54.13722333   223.03884181
 S      2   1   3     4.120952165254   157.57599822   120.96710340
 S      3   1   2     4.207065892630   153.16142889   204.32728589
 S      1   2   3     4.088448359595    51.25839439   294.20507636
 S      2   1   3     4.192703100162    52.10171823   227.28367764
 S      3   1   2     4.189770337221    53.15223379   132.95574499
 S      4   3   1     4.184962262584   131.44596911   148.01302670
 S      1   2   3     4.164209830638   123.78222432   184.07911681
 C     13   1   2     3.335641699963   120.75652516   149.54683663
 C      7   2   1     5.176702168462   110.74038525   106.30053665
 C     14  13   1     4.772458462009    84.64305686   192.45806400
 C     15   7   2     4.651378646047    64.47801716   273.07676129
 C     14  13   1     2.665034319759   124.84257382    11.61431631
 C      8   3   1     3.373903767315   114.39823593   132.65235123
 C     19   8   3     2.677493984374   121.13191637   101.55452244
 C     19   8   3     2.676107906655   119.34225949   276.44007722
 C     20  19   8     2.818425744560   123.54352266   347.73525745
 C     14  13   1     2.687780627741   115.33590263   190.53242710
 C     17  15   7     2.815566151087   149.80993797    10.50314518
 C     18  14  13     4.739425741697   116.69347984   324.58291275
 C     23  14  13     2.637890072660   119.44631784   182.09156535
 H     26  23  14     2.063157638773   118.58839138   179.91927569
 C     15   7   2     2.821418976367    85.74258452    90.24449144
 C     18  14  13     2.650105688810   118.94273564   178.09647055
 H     29  18  14     2.063937876434   118.28769218   179.80750775
 C     21  19   8     2.817542984078   123.53120463    10.23392976
 C     25  18  14     2.666220920947    30.99301102   111.38100343
 C     22  20  19     4.586612798935   151.53219941    88.19958976
 H     33  22  20     2.065544928600   149.27223407   355.77113817
 C     33  22  20     2.650268028706    91.31139324   173.74341107
 C     35  33  22     2.645862251721   117.95530407   359.42360182
 H     36  35  33     2.064904880880   119.45022250   180.06095178
 C     16  14  13     2.663781101187   116.90660826    80.60519040
 C     15   7   2     2.672776243559    34.89744137   274.54113113
 C     33  22  20     2.652946449832    30.51522891   353.25735151
 C     36  35  33     4.745437281587   153.34081055   353.69733905
 H     41  36  35     2.072124112314   135.17188615    53.36045148
 H     41  36  35     2.083128210791   109.29357631   271.52588367
 H     41  36  35     2.072927454290    84.96291897   164.61606786
 C     12   4   3     3.359321623603   117.69310684   246.83670917
 C     40  33  22     2.845189981061   120.22844942   179.00835772
 H     46  40  33     2.074921473950   111.03122872   357.81609712
 H     46  40  33     2.078510844194   111.12983314   236.96755169
 H     46  40  33     2.082318556523   110.95811589   118.77589073
 C     28  15   7     2.659907803092   119.80464270   264.78913153
 C     36  35  33     2.648399759888   122.06630968   359.16403469
 C     21  19   8     2.648851810886   119.31406239   188.10539390
 H     52  21  19     2.062990657085   118.20944830   179.73010868
 C     17  15   7     2.646046742135    88.87481340   183.17728147
 H     54  17  15     2.063533226813   118.63637903   180.68235486
 C     50  28  15     2.648812782768   118.98637487   178.96790095
 H     56  50  28     2.066776494286   118.63817906   181.27700524
 C     29  18  14     2.632919395609   121.50054747   359.96309434
 H     58  29  18     2.061494239292   120.24370879   180.16541003
 C     45  12   4     2.677625026833   118.77856400   117.96387315
 C      5   3   1     6.317142785605   149.09064016    72.32112401
 C     24  17  15     2.667606197433   120.88256419   280.46496361
 C     25  18  14     2.841149255039    89.80595782   296.15652300
 H     63  25  18     2.083227828461   110.84351755   289.17822869
 H     63  25  18     2.070121680789   110.24504051   169.11818508
 H     63  25  18     2.075549006030   111.74996837    48.60397820
 C     38  16  14     2.642659272969   119.08554772   216.69089549
 H     67  38  16     2.067053527347   118.77414802   178.56095153
 C     45  12   4     2.675396071773   121.40393327   292.88645964
 C     31  21  19     2.662668259032   118.65892743   101.34955214
 C     69  45  12     4.695194571004   123.00154495    48.52309247
 C     16  14  13     2.662918806683   114.29494605   292.93109686
 C     28  15   7     2.666658845120   120.06330695    84.35331487
 C     52  21  19     2.630315229502   121.42607836   359.70909184
 H     74  52  21     2.061607921044   120.47544659   179.08647740
 C     61   5   3     2.650085651287    72.26382131   337.93656923
 H     76  61   5     2.067995185202   119.37498984   107.33973761
 C     73  28  15     2.640137745312   119.07311151   180.04924346
 H     78  73  28     2.067129821725   118.78959631   180.17268690
 C     71  69  45     2.662516249787    31.99281879   259.33428616
 C     67  38  16     2.641994643471   121.85861297   359.66572110
 C     61   5   3     2.646855017176    84.00992410   216.14996461
 H     82  61   5     2.064999559966   119.18680891   246.26072848
 C     74  52  21     2.630257718108   119.10412752   357.88975383
 H     84  74  52     2.063662864026   120.31578172   182.44231562
 C     60  45  12     2.822171340098   122.83413900   349.12332022
 C     71  69  45     2.646665036285   151.00158066   253.34203950
 H     87  71  69     2.065073405137   118.97756495   181.13507400
 C     87  71  69     4.535571466793    90.69840821     3.60507683
 H     89  87  71     2.065788178686   150.23578781   179.70965964
 C     31  21  19     2.665451724653   120.83268268   276.16873089
 C     24  17  15     2.667259171728   119.11893134    98.36458257
 C     32  25  18     2.668774217542   120.12181935   172.35348757
 C     76  61   5     2.650466582796   121.96624018   286.33173788
 C     72  16  14     2.643684783197   119.05305692   144.21399100
 H     95  72  16     2.067001175138   118.81571365   181.10450088
 C     87  71  69     2.640805683908   121.66105378     3.95963472
 C     71  69  45     2.845376865667    88.77966361    75.08792308
 H     98  71  69     2.078318570700   110.98599795   309.96459248
 H     98  71  69     2.070651433298   110.39123429   190.49384826
 H     98  71  69     2.080077778625   111.95376526    69.25684165
 C     25  18  14     2.651048074413   149.55741273   126.52621093
 H    102  25  18     2.064898364214   118.93327734   172.19623790
 C     50  28  15     2.838626236910   121.23782302   358.08552410
 H    104  50  28     2.074944154347   112.16653279    40.47788862
 H    104  50  28     2.083187447111   111.01229909   281.48145576
 H    104  50  28     2.074061845408   111.36110911   161.50328925
 C     35  33  22     2.846175717529   121.53947829   180.23006055
 H    108  35  33     2.081284349378   111.48499656   243.36278481
 H    108  35  33     2.078948025850   110.98007347   124.39491296
 H    108  35  33     2.074713981167   111.48987329     4.17063655
 C     82  61   5     2.651972063208   122.02980166    66.42711138
 C     73  28  15     2.843392523989   120.48634550   358.66581834
 H    113  73  28     2.078467495169   111.68416435    54.53570826
 H    113  73  28     2.081746961830   110.62727816   295.94579298
 H    113  73  28     2.074638686438   111.05418814   175.86813887
 C     78  73  28     4.773671865522   152.69141678     0.25585401
 H    117  78  73     2.081025104028    97.79052007   239.96636329
 H    117  78  73     2.080024847493    93.26222884   132.42961786
 H    117  78  73     2.075898881151   139.55320611     9.11470222
 C     70  31  21     2.847201371011   121.37791012   355.88602668
 H    121  70  31     2.082550449464   111.20614540    80.13650452
 H    121  70  31     2.075544040673   111.71539646   321.03241909
 H    121  70  31     2.074768257873   111.15171214   200.48660140
 C     91  31  21     4.622985928189    89.85508415   185.50443735
 C    125  91  31     2.639494767336    89.05703416   359.52347765
 H    126 125  91     2.064729687925   119.51609056   180.48296602
 C     56  50  28     2.638902552240   121.88680278     1.32046051
 C     15   7   2     2.643958600515   153.59386199   266.53983724
 H    129  15   7     2.063890907313   118.83295922   185.10016367
 C    102  25  18     2.636994286928   121.53462042   352.59573250
 C     93  32  25     2.637654082831   118.82749466   357.64873113
 H    132  93  32     2.066736085795   118.74152851   180.66579871
 C     54  17  15     2.636842609931   121.15280606     0.17851903
 H    134  54  17     2.062222012651   120.05549734   179.92449481
 C     89  87  71     2.641472645390    91.10222323   359.77562964
 C     61   5   3     2.846698326817   114.31472953    94.30612464
 H    137  61   5     2.078881153561   111.66301535   324.00701581
 H    137  61   5     2.081136057712   110.84391931   204.87679022
 H    137  61   5     2.075386731816   111.48925093    85.15902791
 C     72  16  14     2.843932985063   120.63492396   323.98352333
 H    141  72  16     2.082361832221   111.02950799   284.60310589
 H    141  72  16     2.074456026362   111.18907638   164.20422781
 H    141  72  16     2.075256378893   111.28118803    43.38994037
 C     91  31  21     2.641170642699   118.95106295   185.24269733
 H    145  91  31     2.066916380587   118.85102353   179.91116742
 C     92  24  17     2.844574584823   122.05552911     7.34805154
 H    147  92  24     2.071258634587   112.12838580   328.82730228
 H    147  92  24     2.075247031434   110.94312165   207.14040905
 H    147  92  24     2.083401517067   110.65581090    88.49908767
 C     38  16  14     2.846026773135   120.94081421    37.16121225
 H    151  38  16     2.077438879877   111.69118367   319.82575077
 H    151  38  16     2.074814061028   110.94991245   198.44441768
 H    151  38  16     2.082482669011   111.12549133    78.39072040
 C    136  89  87     2.842348008073   120.46400517   180.46674773
 H    155 136  89     2.079682554401   111.42760635   123.99371195
 H    155 136  89     2.074468248361   111.02883764     3.06739905
 H    155 136  89     2.083322425950   110.77749805   242.74529527
 C     62  24  17     2.844660221235   121.19037948   354.90954492
 H    159  62  24     2.083006683398   110.74605262    74.41058595
 H    159  62  24     2.077957915971   111.63197453   315.28416245
 H    159  62  24     2.075438003360   110.81630468   194.22073083
 C     94  76  61     2.844462061433   120.00866602   181.03235693
 H    163  94  76     2.077204278669   111.41310884   233.59911724
 H    163  94  76     2.079365106619   111.15496925   114.76046377
 H    163  94  76     2.074784105428   110.88423793   354.00231347
 C     92  24  17     2.646026402876   118.93132561   186.24473184
 H    167  92  24     2.061732998214   118.22927644   176.82262247
 C    112  82  61     2.840501186600   120.48120940   180.41534606
 H    169 112  82     2.073999504772   111.28627133   355.61692328
 H    169 112  82     2.078089425154   111.19133027   234.51402153
 H    169 112  82     2.081464619226   110.59702089   116.41029207
 C     62  24  17     2.642188813932   119.03718100   175.05146729
 H    173  62  24     2.067415358672   118.71349257   179.69337749
 C     69  45  12     2.649149365452   118.92314828   188.58633062
 H    175  69  45     2.063079809021   118.14270708   179.48093934
 C     60  45  12     2.646735080183   119.54424347   171.70722546
 H    177  60  45     2.063845935665   118.64680824   180.33820680
 C     93  32  25     2.842150629897   120.67963375   176.88769502
 H    179  93  32     2.079079876263   111.83507549    62.32555293
 H    179  93  32     2.079596252008   110.55948833   303.71287759
 H    179  93  32     2.074517682232   110.91805460   183.63601163
 C     97  87  71     2.843873267995   121.02741806   177.68351981
 H    183  97  87     2.076275657387   111.04802073     0.48213041
 H    183  97  87     2.080786958251   110.93369585   240.61256629
 H    183  97  87     2.080612949975   111.43666140   121.32221448
 C     81  67  38     2.844919530826   120.90195423   176.41974009
 H    187  81  67     2.084280783024   110.72364299   275.28537449
 H    187  81  67     2.075971673887   111.49065227   155.92705155
 H    187  81  67     2.076945863989   111.53642712    34.63815742
 C     91  31  21     2.843181716903   120.60776367     4.14108104
 H    191  91  31     2.074935001933   111.02663419   180.77940028
 H    191  91  31     2.080819241191   110.74477568    60.11936970
 H    191  91  31     2.080429286234   111.28148803   301.42545815
 C    175  69  45     2.632242129856   121.56370419   359.09417123
 H    195 175  69     2.062387737201   120.38338644   179.31842099
 C    167  92  24     2.638442831040   121.99748690   357.76732823
 C    125  91  31     2.845519230066   149.68162076   176.86801680
 H    198 125  91     2.075759425794   111.42996220   167.71299184
 H    198 125  91     2.078616110146   111.48975402    46.91283240
 H    198 125  91     2.082567583378   110.96603483   287.54512261
 C    131 102  25     2.838857292299   121.30668017   179.28760593
 H    202 131 102     2.083424026453   110.68954299   100.32461510
 H    202 131 102     2.073434107245   111.32585917   341.80063581
 H    202 131 102     2.079132356922   111.38382809   220.15428562
 C    197 167  92     2.844241137838   121.00443985   178.12488003
 H    206 197 167     2.081537467794   110.69788284   272.42434995
 H    206 197 167     2.076663944530   111.47037684   152.84831708
 H    206 197 167     2.077236592082   111.55612504    31.44185373

---------------------
BASIS SET INFORMATION
---------------------
There are 5 groups of distinct atoms

 Group   1 Type Fe  : 17s11p5d1f contracted to 17s7p3d1f pattern {11111111111111111/3311111/311/1}
 Group   2 Type K   : 17s11p3d contracted to 6s4p3d pattern {842111/6311/111}
 Group   3 Type S   : 14s9p3d1f contracted to 5s5p2d1f pattern {73211/51111/21/1}
 Group   4 Type C   : 11s6p2d1f contracted to 5s3p2d1f pattern {62111/411/11/1}
 Group   5 Type H   : 5s1p contracted to 3s1p pattern {311/1}

Atom   0Fe   basis set group =>   1
Atom   1Fe   basis set group =>   1
Atom   2Fe   basis set group =>   1
Atom   3Fe   basis set group =>   1
Atom   4K    basis set group =>   2
Atom   5S    basis set group =>   3
Atom   6S    basis set group =>   3
Atom   7S    basis set group =>   3
Atom   8S    basis set group =>   3
Atom   9S    basis set group =>   3
Atom  10S    basis set group =>   3
Atom  11S    basis set group =>   3
Atom  12S    basis set group =>   3
Atom  13C    basis set group =>   4
Atom  14C    basis set group =>   4
Atom  15C    basis set group =>   4
Atom  16C    basis set group =>   4
Atom  17C    basis set group =>   4
Atom  18C    basis set group =>   4
Atom  19C    basis set group =>   4
Atom  20C    basis set group =>   4
Atom  21C    basis set group =>   4
Atom  22C    basis set group =>   4
Atom  23C    basis set group =>   4
Atom  24C    basis set group =>   4
Atom  25C    basis set group =>   4
Atom  26H    basis set group =>   5
Atom  27C    basis set group =>   4
Atom  28C    basis set group =>   4
Atom  29H    basis set group =>   5
Atom  30C    basis set group =>   4
Atom  31C    basis set group =>   4
Atom  32C    basis set group =>   4
Atom  33H    basis set group =>   5
Atom  34C    basis set group =>   4
Atom  35C    basis set group =>   4
Atom  36H    basis set group =>   5
Atom  37C    basis set group =>   4
Atom  38C    basis set group =>   4
Atom  39C    basis set group =>   4
Atom  40C    basis set group =>   4
Atom  41H    basis set group =>   5
Atom  42H    basis set group =>   5
Atom  43H    basis set group =>   5
Atom  44C    basis set group =>   4
Atom  45C    basis set group =>   4
Atom  46H    basis set group =>   5
Atom  47H    basis set group =>   5
Atom  48H    basis set group =>   5
Atom  49C    basis set group =>   4
Atom  50C    basis set group =>   4
Atom  51C    basis set group =>   4
Atom  52H    basis set group =>   5
Atom  53C    basis set group =>   4
Atom  54H    basis set group =>   5
Atom  55C    basis set group =>   4
Atom  56H    basis set group =>   5
Atom  57C    basis set group =>   4
Atom  58H    basis set group =>   5
Atom  59C    basis set group =>   4
Atom  60C    basis set group =>   4
Atom  61C    basis set group =>   4
Atom  62C    basis set group =>   4
Atom  63H    basis set group =>   5
Atom  64H    basis set group =>   5
Atom  65H    basis set group =>   5
Atom  66C    basis set group =>   4
Atom  67H    basis set group =>   5
Atom  68C    basis set group =>   4
Atom  69C    basis set group =>   4
Atom  70C    basis set group =>   4
Atom  71C    basis set group =>   4
Atom  72C    basis set group =>   4
Atom  73C    basis set group =>   4
Atom  74H    basis set group =>   5
Atom  75C    basis set group =>   4
Atom  76H    basis set group =>   5
Atom  77C    basis set group =>   4
Atom  78H    basis set group =>   5
Atom  79C    basis set group =>   4
Atom  80C    basis set group =>   4
Atom  81C    basis set group =>   4
Atom  82H    basis set group =>   5
Atom  83C    basis set group =>   4
Atom  84H    basis set group =>   5
Atom  85C    basis set group =>   4
Atom  86C    basis set group =>   4
Atom  87H    basis set group =>   5
Atom  88C    basis set group =>   4
Atom  89H    basis set group =>   5
Atom  90C    basis set group =>   4
Atom  91C    basis set group =>   4
Atom  92C    basis set group =>   4
Atom  93C    basis set group =>   4
Atom  94C    basis set group =>   4
Atom  95H    basis set group =>   5
Atom  96C    basis set group =>   4
Atom  97C    basis set group =>   4
Atom  98H    basis set group =>   5
Atom  99H    basis set group =>   5
Atom 100H    basis set group =>   5
Atom 101C    basis set group =>   4
Atom 102H    basis set group =>   5
Atom 103C    basis set group =>   4
Atom 104H    basis set group =>   5
Atom 105H    basis set group =>   5
Atom 106H    basis set group =>   5
Atom 107C    basis set group =>   4
Atom 108H    basis set group =>   5
Atom 109H    basis set group =>   5
Atom 110H    basis set group =>   5
Atom 111C    basis set group =>   4
Atom 112C    basis set group =>   4
Atom 113H    basis set group =>   5
Atom 114H    basis set group =>   5
Atom 115H    basis set group =>   5
Atom 116C    basis set group =>   4
Atom 117H    basis set group =>   5
Atom 118H    basis set group =>   5
Atom 119H    basis set group =>   5
Atom 120C    basis set group =>   4
Atom 121H    basis set group =>   5
Atom 122H    basis set group =>   5
Atom 123H    basis set group =>   5
Atom 124C    basis set group =>   4
Atom 125C    basis set group =>   4
Atom 126H    basis set group =>   5
Atom 127C    basis set group =>   4
Atom 128C    basis set group =>   4
Atom 129H    basis set group =>   5
Atom 130C    basis set group =>   4
Atom 131C    basis set group =>   4
Atom 132H    basis set group =>   5
Atom 133C    basis set group =>   4
Atom 134H    basis set group =>   5
Atom 135C    basis set group =>   4
Atom 136C    basis set group =>   4
Atom 137H    basis set group =>   5
Atom 138H    basis set group =>   5
Atom 139H    basis set group =>   5
Atom 140C    basis set group =>   4
Atom 141H    basis set group =>   5
Atom 142H    basis set group =>   5
Atom 143H    basis set group =>   5
Atom 144C    basis set group =>   4
Atom 145H    basis set group =>   5
Atom 146C    basis set group =>   4
Atom 147H    basis set group =>   5
Atom 148H    basis set group =>   5
Atom 149H    basis set group =>   5
Atom 150C    basis set group =>   4
Atom 151H    basis set group =>   5
Atom 152H    basis set group =>   5
Atom 153H    basis set group =>   5
Atom 154C    basis set group =>   4
Atom 155H    basis set group =>   5
Atom 156H    basis set group =>   5
Atom 157H    basis set group =>   5
Atom 158C    basis set group =>   4
Atom 159H    basis set group =>   5
Atom 160H    basis set group =>   5
Atom 161H    basis set group =>   5
Atom 162C    basis set group =>   4
Atom 163H    basis set group =>   5
Atom 164H    basis set group =>   5
Atom 165H    basis set group =>   5
Atom 166C    basis set group =>   4
Atom 167H    basis set group =>   5
Atom 168C    basis set group =>   4
Atom 169H    basis set group =>   5
Atom 170H    basis set group =>   5
Atom 171H    basis set group =>   5
Atom 172C    basis set group =>   4
Atom 173H    basis set group =>   5
Atom 174C    basis set group =>   4
Atom 175H    basis set group =>   5
Atom 176C    basis set group =>   4
Atom 177H    basis set group =>   5
Atom 178C    basis set group =>   4
Atom 179H    basis set group =>   5
Atom 180H    basis set group =>   5
Atom 181H    basis set group =>   5
Atom 182C    basis set group =>   4
Atom 183H    basis set group =>   5
Atom 184H    basis set group =>   5
Atom 185H    basis set group =>   5
Atom 186C    basis set group =>   4
Atom 187H    basis set group =>   5
Atom 188H    basis set group =>   5
Atom 189H    basis set group =>   5
Atom 190C    basis set group =>   4
Atom 191H    basis set group =>   5
Atom 192H    basis set group =>   5
Atom 193H    basis set group =>   5
Atom 194C    basis set group =>   4
Atom 195H    basis set group =>   5
Atom 196C    basis set group =>   4
Atom 197C    basis set group =>   4
Atom 198H    basis set group =>   5
Atom 199H    basis set group =>   5
Atom 200H    basis set group =>   5
Atom 201C    basis set group =>   4
Atom 202H    basis set group =>   5
Atom 203H    basis set group =>   5
Atom 204H    basis set group =>   5
Atom 205C    basis set group =>   4
Atom 206H    basis set group =>   5
Atom 207H    basis set group =>   5
Atom 208H    basis set group =>   5
---------------------------------
AUXILIARY/J BASIS SET INFORMATION
---------------------------------
There are 5 groups of distinct atoms

 Group   1 Type Fe  : 19s5p5d3f3g contracted to 8s5p5d2f3g pattern {121111111/11111/11111/21/111}
 Group   2 Type K   : 19s5p5d3f1g contracted to 8s4p4d1f1g pattern {121111111/2111/2111/3/1}
 Group   3 Type S   : 14s5p5d2f1g contracted to 8s4p3d1f1g pattern {71111111/2111/311/2/1}
 Group   4 Type C   : 12s5p4d2f1g contracted to 6s4p3d1f1g pattern {711111/2111/211/2/1}
 Group   5 Type H   : 5s2p1d contracted to 3s1p1d pattern {311/2/1}

Atom   0Fe   basis set group =>   1
Atom   1Fe   basis set group =>   1
Atom   2Fe   basis set group =>   1
Atom   3Fe   basis set group =>   1
Atom   4K    basis set group =>   2
Atom   5S    basis set group =>   3
Atom   6S    basis set group =>   3
Atom   7S    basis set group =>   3
Atom   8S    basis set group =>   3
Atom   9S    basis set group =>   3
Atom  10S    basis set group =>   3
Atom  11S    basis set group =>   3
Atom  12S    basis set group =>   3
Atom  13C    basis set group =>   4
Atom  14C    basis set group =>   4
Atom  15C    basis set group =>   4
Atom  16C    basis set group =>   4
Atom  17C    basis set group =>   4
Atom  18C    basis set group =>   4
Atom  19C    basis set group =>   4
Atom  20C    basis set group =>   4
Atom  21C    basis set group =>   4
Atom  22C    basis set group =>   4
Atom  23C    basis set group =>   4
Atom  24C    basis set group =>   4
Atom  25C    basis set group =>   4
Atom  26H    basis set group =>   5
Atom  27C    basis set group =>   4
Atom  28C    basis set group =>   4
Atom  29H    basis set group =>   5
Atom  30C    basis set group =>   4
Atom  31C    basis set group =>   4
Atom  32C    basis set group =>   4
Atom  33H    basis set group =>   5
Atom  34C    basis set group =>   4
Atom  35C    basis set group =>   4
Atom  36H    basis set group =>   5
Atom  37C    basis set group =>   4
Atom  38C    basis set group =>   4
Atom  39C    basis set group =>   4
Atom  40C    basis set group =>   4
Atom  41H    basis set group =>   5
Atom  42H    basis set group =>   5
Atom  43H    basis set group =>   5
Atom  44C    basis set group =>   4
Atom  45C    basis set group =>   4
Atom  46H    basis set group =>   5
Atom  47H    basis set group =>   5
Atom  48H    basis set group =>   5
Atom  49C    basis set group =>   4
Atom  50C    basis set group =>   4
Atom  51C    basis set group =>   4
Atom  52H    basis set group =>   5
Atom  53C    basis set group =>   4
Atom  54H    basis set group =>   5
Atom  55C    basis set group =>   4
Atom  56H    basis set group =>   5
Atom  57C    basis set group =>   4
Atom  58H    basis set group =>   5
Atom  59C    basis set group =>   4
Atom  60C    basis set group =>   4
Atom  61C    basis set group =>   4
Atom  62C    basis set group =>   4
Atom  63H    basis set group =>   5
Atom  64H    basis set group =>   5
Atom  65H    basis set group =>   5
Atom  66C    basis set group =>   4
Atom  67H    basis set group =>   5
Atom  68C    basis set group =>   4
Atom  69C    basis set group =>   4
Atom  70C    basis set group =>   4
Atom  71C    basis set group =>   4
Atom  72C    basis set group =>   4
Atom  73C    basis set group =>   4
Atom  74H    basis set group =>   5
Atom  75C    basis set group =>   4
Atom  76H    basis set group =>   5
Atom  77C    basis set group =>   4
Atom  78H    basis set group =>   5
Atom  79C    basis set group =>   4
Atom  80C    basis set group =>   4
Atom  81C    basis set group =>   4
Atom  82H    basis set group =>   5
Atom  83C    basis set group =>   4
Atom  84H    basis set group =>   5
Atom  85C    basis set group =>   4
Atom  86C    basis set group =>   4
Atom  87H    basis set group =>   5
Atom  88C    basis set group =>   4
Atom  89H    basis set group =>   5
Atom  90C    basis set group =>   4
Atom  91C    basis set group =>   4
Atom  92C    basis set group =>   4
Atom  93C    basis set group =>   4
Atom  94C    basis set group =>   4
Atom  95H    basis set group =>   5
Atom  96C    basis set group =>   4
Atom  97C    basis set group =>   4
Atom  98H    basis set group =>   5
Atom  99H    basis set group =>   5
Atom 100H    basis set group =>   5
Atom 101C    basis set group =>   4
Atom 102H    basis set group =>   5
Atom 103C    basis set group =>   4
Atom 104H    basis set group =>   5
Atom 105H    basis set group =>   5
Atom 106H    basis set group =>   5
Atom 107C    basis set group =>   4
Atom 108H    basis set group =>   5
Atom 109H    basis set group =>   5
Atom 110H    basis set group =>   5
Atom 111C    basis set group =>   4
Atom 112C    basis set group =>   4
Atom 113H    basis set group =>   5
Atom 114H    basis set group =>   5
Atom 115H    basis set group =>   5
Atom 116C    basis set group =>   4
Atom 117H    basis set group =>   5
Atom 118H    basis set group =>   5
Atom 119H    basis set group =>   5
Atom 120C    basis set group =>   4
Atom 121H    basis set group =>   5
Atom 122H    basis set group =>   5
Atom 123H    basis set group =>   5
Atom 124C    basis set group =>   4
Atom 125C    basis set group =>   4
Atom 126H    basis set group =>   5
Atom 127C    basis set group =>   4
Atom 128C    basis set group =>   4
Atom 129H    basis set group =>   5
Atom 130C    basis set group =>   4
Atom 131C    basis set group =>   4
Atom 132H    basis set group =>   5
Atom 133C    basis set group =>   4
Atom 134H    basis set group =>   5
Atom 135C    basis set group =>   4
Atom 136C    basis set group =>   4
Atom 137H    basis set group =>   5
Atom 138H    basis set group =>   5
Atom 139H    basis set group =>   5
Atom 140C    basis set group =>   4
Atom 141H    basis set group =>   5
Atom 142H    basis set group =>   5
Atom 143H    basis set group =>   5
Atom 144C    basis set group =>   4
Atom 145H    basis set group =>   5
Atom 146C    basis set group =>   4
Atom 147H    basis set group =>   5
Atom 148H    basis set group =>   5
Atom 149H    basis set group =>   5
Atom 150C    basis set group =>   4
Atom 151H    basis set group =>   5
Atom 152H    basis set group =>   5
Atom 153H    basis set group =>   5
Atom 154C    basis set group =>   4
Atom 155H    basis set group =>   5
Atom 156H    basis set group =>   5
Atom 157H    basis set group =>   5
Atom 158C    basis set group =>   4
Atom 159H    basis set group =>   5
Atom 160H    basis set group =>   5
Atom 161H    basis set group =>   5
Atom 162C    basis set group =>   4
Atom 163H    basis set group =>   5
Atom 164H    basis set group =>   5
Atom 165H    basis set group =>   5
Atom 166C    basis set group =>   4
Atom 167H    basis set group =>   5
Atom 168C    basis set group =>   4
Atom 169H    basis set group =>   5
Atom 170H    basis set group =>   5
Atom 171H    basis set group =>   5
Atom 172C    basis set group =>   4
Atom 173H    basis set group =>   5
Atom 174C    basis set group =>   4
Atom 175H    basis set group =>   5
Atom 176C    basis set group =>   4
Atom 177H    basis set group =>   5
Atom 178C    basis set group =>   4
Atom 179H    basis set group =>   5
Atom 180H    basis set group =>   5
Atom 181H    basis set group =>   5
Atom 182C    basis set group =>   4
Atom 183H    basis set group =>   5
Atom 184H    basis set group =>   5
Atom 185H    basis set group =>   5
Atom 186C    basis set group =>   4
Atom 187H    basis set group =>   5
Atom 188H    basis set group =>   5
Atom 189H    basis set group =>   5
Atom 190C    basis set group =>   4
Atom 191H    basis set group =>   5
Atom 192H    basis set group =>   5
Atom 193H    basis set group =>   5
Atom 194C    basis set group =>   4
Atom 195H    basis set group =>   5
Atom 196C    basis set group =>   4
Atom 197C    basis set group =>   4
Atom 198H    basis set group =>   5
Atom 199H    basis set group =>   5
Atom 200H    basis set group =>   5
Atom 201C    basis set group =>   4
Atom 202H    basis set group =>   5
Atom 203H    basis set group =>   5
Atom 204H    basis set group =>   5
Atom 205C    basis set group =>   4
Atom 206H    basis set group =>   5
Atom 207H    basis set group =>   5
Atom 208H    basis set group =>   5


           ************************************************************
           *        Program running with 16 parallel MPI-processes    *
           *              working on a common directory               *
           ************************************************************
------------------------------------------------------------------------------
                           ORCA GTO INTEGRAL CALCULATION
                           -- RI-GTO INTEGRALS CHOSEN --
------------------------------------------------------------------------------
------------------------------------------------------------------------------
                   ___                                                        
                  /   \      - P O W E R E D   B Y -                         
                 /     \                                                     
                 |  |  |   _    _      __       _____    __    __             
                 |  |  |  | |  | |    /  \     |  _  \  |  |  /  |          
                  \  \/   | |  | |   /    \    | | | |  |  | /  /          
                 / \  \   | |__| |  /  /\  \   | |_| |  |  |/  /          
                |  |  |   |  __  | /  /__\  \  |    /   |      \           
                |  |  |   | |  | | |   __   |  |    \   |  |\   \          
                \     /   | |  | | |  |  |  |  | |\  \  |  | \   \       
[...]
  84:      1.00000
  85:      1.00000
  86:      1.00000
  87:      1.00000
  88:      1.00000
  89:      1.00000
  90:      1.00000
  91:      1.00000
  92:      1.00000
  93:      1.00000
  94:      1.00000
  95:      1.00000
  96:      1.00000
  97:      1.00000
  98:      1.00000
  99:      1.00000
 100:      1.00000
 101:      1.00000
 102:      1.00000
 103:      1.00000
 104:      1.00000
 105:      1.00000
 106:      1.00000
 107:      1.00000
 108:      1.00000
 109:      1.00000
 110:      1.00000
 111:      1.00000
 112:      1.00000
 113:      1.00000
 114:      1.00000
 115:      1.00000
 116:      1.00000
 117:      1.00000
 118:      1.00000
 119:      1.00000
 120:      1.00000
 121:      1.00000
 122:      1.00000
 123:      1.00000
 124:      1.00000
 125:      1.00000
 126:      1.00000
 127:      1.00000
 128:      1.00000
 129:      1.00000
 130:      1.00000
 131:      1.00000
 132:      1.00000
 133:      1.00000
 134:      1.00000
 135:      1.00000
 136:      1.00000
 137:      1.00000
 138:      1.00000
 139:      1.00000
 140:      1.00000
 141:      1.00000
 142:      1.00000
 143:      1.00000
 144:      1.00000
 145:      1.00000
 146:      1.00000
 147:      1.00000
 148:      1.00000
 149:      1.00000
 150:      1.00000
 151:      1.00000
 152:      1.00000
 153:      1.00000
 154:      1.00000
 155:      1.00000
 156:      1.00000
 157:      1.00000
 158:      1.00000
 159:      1.00000
 160:      1.00000
 161:      1.00000
 162:      1.00000
 163:      1.00000
 164:      1.00000
 165:      1.00000
 166:      1.00000
 167:      1.00000
 168:      1.00000
 169:      1.00000
 170:      1.00000
 171:      1.00000
 172:      1.00000
 173:      1.00000
 174:      1.00000
 175:      1.00000
 176:      1.00000
 177:      1.00000
 178:      1.00000
 179:      1.00000
 180:      1.00000
 181:      1.00000
 182:      1.00000
 183:      1.00000
 184:      1.00000
 185:      1.00000
 186:      1.00000
 187:      1.00000
 188:      1.00000
 189:      1.00000
 190:      1.00000
 191:      1.00000
 192:      1.00000
 193:      1.00000
 194:      1.00000
 195:      1.00000
 196:      1.00000
 197:      1.00000
 198:      1.00000
 199:      1.00000
 200:      1.00000
 201:      1.00000
 202:      1.00000
 203:      1.00000
 204:      1.00000
 205:      1.00000
 206:      1.00000
 207:      1.00000
 208:      1.00000
 209:      1.00000
 210:      1.00000
 211:      1.00000
 212:      1.00000
 213:      1.00000
 214:      1.00000
 215:      1.00000
 216:      1.00000
 217:      1.00000
 218:      1.00000
 219:      1.00000
 220:      1.00000
 221:      1.00000
 222:      1.00000
 223:      1.00000
 224:      1.00000
 225:      1.00000
 226:      1.00000
 227:      1.00000
 228:      1.00000
 229:      1.00000
 230:      1.00000
 231:      1.00000
 232:      1.00000
 233:      1.00000
 234:      1.00000
 235:      1.00000
 236:      1.00000
 237:      1.00000
 238:      1.00000
 239:      1.00000
 240:      1.00000
 241:      1.00000
 242:      1.00000
 243:      1.00000
 244:      1.00000
 245:      1.00000
 246:      1.00000
 247:      1.00000
 248:      1.00000
 249:      1.00000
 250:      1.00000
 251:      1.00000
 252:      1.00000
 253:      1.00000
 254:      1.00000
 255:      1.00000
 256:      1.00000
 257:      1.00000
 258:      1.00000
 259:      1.00000
 260:      1.00000
 261:      1.00000
 262:      1.00000
 263:      1.00000
 264:      1.00000
 265:      1.00000
 266:      1.00000
 267:      1.00000
 268:      1.00000
 269:      1.00000
 270:      1.00000
 271:      1.00000
 272:      1.00000
 273:      1.00000
 274:      1.00000
 275:      1.00000
 276:      1.00000
 277:      1.00000
 278:      1.00000
 279:      1.00000
 280:      1.00000
 281:      1.00000
 282:      1.00000
 283:      1.00000
 284:      1.00000
 285:      1.00000
 286:      1.00000
 287:      1.00000
 288:      1.00000
 289:      1.00000
 290:      1.00000
 291:      1.00000
 292:      1.00000
 293:      1.00000
 294:      1.00000
 295:      1.00000
 296:      1.00000
 297:      1.00000
 298:      1.00000
 299:      1.00000
 300:      1.00000
 301:      1.00000
 302:      1.00000
 303:      1.00000
 304:      1.00000
 305:      1.00000
 306:      1.00000
 307:      1.00000
 308:      1.00000
 309:      1.00000
 310:      1.00000
 311:      1.00000
 312:      1.00000
 313:      1.00000
 314:      1.00000
 315:      1.00000
 316:      1.00000
 317:      1.00000
 318:      1.00000
 319:      1.00000
 320:      1.00000
 321:      1.00000
 322:      1.00000
 323:      1.00000
 324:      1.00000
 325:      1.00000
 326:      1.00000
 327:      1.00000
 328:      1.00000
 329:      1.00000
 330:      1.00000
 331:      1.00000
 332:      1.00000
 333:      1.00000
 334:      1.00000
 335:      1.00000
 336:      1.00000
 337:      1.00000
 338:      1.00000
 339:      1.00000
 340:      1.00000
 341:      1.00000
 342:      1.00000
 343:      1.00000
 344:      1.00000
 345:      1.00000
 346:      1.00000
 347:      1.00000
 348:      1.00000
 349:      1.00000
 350:      1.00000
 351:      1.00000
 352:      1.00000
 353:      1.00000
 354:      1.00000
 355:      1.00000
 356:      1.00000
 357:      1.00000
 358:      1.00000
 359:      1.00000
 360:      1.00000
 361:      1.00000
 362:      1.00000
 363:      1.00000
 364:      1.00000
 365:      1.00000
 366:      1.00000
 367:      1.00000
 368:      1.00000
 369:      1.00000
 370:      1.00000
 371:      1.00000
 372:      1.00000
 373:      1.00000
 374:      1.00000
 375:      1.00000
 376:      1.00000
 377:      1.00000
 378:      1.00000
 379:      1.00000
 380:      1.00000
 381:      1.00000
 382:      1.00000
 383:      1.00000
 384:      1.00000
 385:      1.00000
 386:      1.00000
 387:      1.00000
 388:      1.00000
 389:      1.00000
 390:      1.00000
 391:      1.00000
 392:      1.00000
 393:      1.00000
 394:      1.00000
 395:      1.00000
 396:      1.00000
 397:      1.00000
 398:      1.00000
 399:      1.00000
 400:      1.00000
 401:      1.00000
 402:      1.00000
 403:      1.00000
 404:      1.00000
 405:      0.99999
 406:      0.99999
 407:      0.99999
 408:      0.99999
 409:      0.99999
 410:      0.99999
 411:      0.99999
 412:      0.99999
 413:      0.99999
 414:      0.99999
 415:      0.99999
 416:      0.99999
 417:      0.99999
 418:      0.99999
 419:      0.99998
 420:      0.99998
 421:      0.99998
 422:      0.99998
 423:      0.99998
 424:      0.99998
 425:      0.99998
 426:      0.99998
 427:      0.99997
 428:      0.99997
 429:      0.99997
 430:      0.99996
 431:      0.99995
 432:      0.99995
 433:      0.99993
 434:      0.99991
 435:      0.99989
 436:      0.99987
 437:      0.99971
 438:      0.99966
 439:      0.99962
 440:      0.99958
 441:      0.99953
 442:      0.99946
 443:      0.99939
 444:      0.99934
 445:      0.99929
 446:      0.99921
 447:      0.99912
 448:      0.99905
 449:      0.99898
 450:      0.99886
 451:      0.99830
 452:      0.99817
 453:      0.99552
 454:      0.96995
 455:      0.85282
 456:      0.78403
 457:      0.72392
 458:      0.69211
 459:      0.61876
 460:      0.55529
 461:      0.43171
 462:      0.12107
 463:     -0.00000
(*)  the overlap is weighted by the product of occupation numbers
     NOTE: the whole analysis is not valid for fractional occupations

------------------------------------------
BROKEN SYMMETRY MAGNETIC COUPLING ANALYSIS
------------------------------------------

S(High-Spin)      =   9.5    
<S**2>(High-Spin) =  99.8007    
<S**2>(BrokenSym) =   5.6082    
E(High-Spin)      = -12553.431266 Eh
E(BrokenSym)      = -12553.569655 Eh
E(High-Spin)-E(BrokenSym)= 3.7657 eV  30370.078 cm**-1 (ANTIFERROMAGNETIC coupling)

          ---------------------------------------------------------
          | Spin-Hamiltonian Analysis based on H(HDvV)= -2J*SA*SB |
    -------                                                       -----------
    | J(1) =    -336.51 cm**-1    (from -(E[HS]-E[BS])/Smax**2)             |
    | J(2) =    -304.46 cm**-1    (from -(E[HS]-E[BS])/(Smax*(Smax+1))      |
    | J(3) =    -322.43 cm**-1    (from -(E[HS]-E[BS])/(<S**2>HS-<S**2>BS)) |
    -------------------------------------------------------------------------

  J(1): (a) A.P. Ginsberg J. Am. Chem. Soc. 102 (1980), 111
        (b) L. Noodleman J. Chem. Phys. 74 (1981), 5737
        (c) L. Noodleman E.R. Davidson Chem. Phys. 109 (1985), 131
  J(2)  (d) A. Bencini D. Gatteschi J. Am. Chem. Soc. 108 (1980), 5763
  J(3)  (e) K. Yamaguchi Y. Takahara T. Fueno in: V.H. Smith (Ed.)
            Applied Quantum Chemistry. Reidel, Dordrecht (1986), pp 155
        (f) T.Soda et al. Chem. Phys. Lett., 319, (2000), 223

-------
TIMINGS
-------

Total SCF time: 0 days 5 hours 32 min 38 sec 

Total time                  ....   19958.533 sec
Sum of individual times     ....   16768.241 sec  ( 84.0%)

Fock matrix formation       ....       0.000 sec  (  0.0%)
Diagonalization             ....       0.000 sec  (  0.0%)
Density matrix formation    ....       0.000 sec  (  0.0%)
Population analysis         ....   16768.241 sec  ( 84.0%)
Initial guess               ....       0.000 sec  (  0.0%)
Orbital Transformation      ....       0.000 sec  (  0.0%)
Orbital Orthonormalization  ....       0.000 sec  (  0.0%)
DIIS solution               ....       0.000 sec  (  0.0%)
Grid generation             ....       0.000 sec  (  0.0%)

Maximum memory used throughout the entire SCF-calculation: 2748.2 MB


-------------------------------------------------------------------------------
                          DFT DISPERSION CORRECTION                            
                                                                               
                              DFTD3 V3.1  Rev 1                                
                          USING Becke-Johnson damping                          
-------------------------------------------------------------------------------
The PBE functional is recognized
Active option DFTDOPT                   ...         4   

molecular C6(AA) [au] = 618126.423977 


            DFT-D V3
 parameters
 s6 scaling factor         :     1.0000 
 a1 scaling factor         :     0.4289 
 s8 scaling factor         :     0.7875 
 a2 scaling factor         :     4.4407 
 ad hoc parameters k1-k3   :    16.0000     1.3333    -4.0000 

 Edisp/kcal,au: -291.506708138564  -0.464545459618 
 E6   /kcal   : -200.888247619 
 E8   /kcal   : -90.618460520 
 % E8         :  31.086235064 

-------------------------   ----------------
Dispersion correction           -0.464545460
-------------------------   ----------------


-------------------------   --------------------
FINAL SINGLE POINT ENERGY    -12554.034200669945
-------------------------   --------------------


                            ***************************************
                            *     ORCA property calculations      *
                            ***************************************

                                    ---------------------
                                    Active property flags
                                    ---------------------
   (+) Dipole Moment
   (+) Nuclear properties (Hyperfine,Quadrupole)


------------------------------------------------------------------------------
                       ORCA ELECTRIC PROPERTIES CALCULATION
------------------------------------------------------------------------------

Dipole Moment Calculation                       ... on
Quadrupole Moment Calculation                   ... off
Polarizability Calculation                      ... off
GBWName                                         ... orca.gbw
Electron density                                ... orca.scfp
The origin for moment calculation is the CENTER OF MASS  = (26.305204, 23.132749 12.024590)

-------------
DIPOLE MOMENT
-------------
                                X             Y             Z
Electronic contribution:     -1.25011     -17.93099      -5.25989
Nuclear contribution   :      0.29702      15.21537       4.82530
                        -----------------------------------------
Total Dipole Moment    :     -0.95309      -2.71562      -0.43458
                        -----------------------------------------
Magnitude (a.u.)       :      2.91064
Magnitude (Debye)      :      7.39825



--------------------
Rotational spectrum 
--------------------
 
Rotational constants in cm-1:     0.000559     0.000453     0.000439 
Rotational constants in MHz :    16.772841    13.577758    13.158188 

 Dipole components along the rotational axes: 
x,y,z [a.u.] :    -2.543069    -1.033146    -0.968095 
x,y,z [Debye]:    -6.463968    -2.626049    -2.460703 

 


           ************************************************************
           *        Program running with 16 parallel MPI-processes    *
           *              working on a common directory               *
           ************************************************************
------------------------------------------------------------------------------
                                ORCA EPR/NMR CALCULATION
------------------------------------------------------------------------------

GBWName                      ... orca.gbw
Electron density             ... orca.scfp
Spin density                 ... orca.scfr
Multiplicity                 ... 2
g-tensor                     ... 0
NMR chemical shifts          ... 0
NMR spin-spin couplings      ... 0
NMR spectrum                 ... 0
Number of nuclei for epr/nmr ... 4
   Nucleus:   0Fe
       Hyperfine : Isotope=   57 I=   0.500 P=  17.280
       Quadrupole: Isotope=   57 I=   0.500 Q=   0.160
       Spin-Orbit: Zeff=  13.910
       Nuclear Spin-Spin: Gn=   0.000
       EPRNMR Input: 
       rho(0)=Y f(grad)=Y a(iso)=N a(dip)=N a(orb)=N sigma(nmr)=N spin-spin(nmr)=all-N,DSO-N,PSO-N,FC-N,SD-N
   Nucleus:   1Fe
       Hyperfine : Isotope=   57 I=   0.500 P=  17.280
       Quadrupole: Isotope=   57 I=   0.500 Q=   0.160
       Spin-Orbit: Zeff=  13.910
       Nuclear Spin-Spin: Gn=   0.000
       EPRNMR Input: 
       rho(0)=Y f(grad)=Y a(iso)=N a(dip)=N a(orb)=N sigma(nmr)=N spin-spin(nmr)=all-N,DSO-N,PSO-N,FC-N,SD-N
   Nucleus:   2Fe
       Hyperfine : Isotope=   57 I=   0.500 P=  17.280
       Quadrupole: Isotope=   57 I=   0.500 Q=   0.160
       Spin-Orbit: Zeff=  13.910
       Nuclear Spin-Spin: Gn=   0.000
       EPRNMR Input: 
       rho(0)=Y f(grad)=Y a(iso)=N a(dip)=N a(orb)=N sigma(nmr)=N spin-spin(nmr)=all-N,DSO-N,PSO-N,FC-N,SD-N
   Nucleus:   3Fe
       Hyperfine : Isotope=   57 I=   0.500 P=  17.280
       Quadrupole: Isotope=   57 I=   0.500 Q=   0.160
       Spin-Orbit: Zeff=  13.910
       Nuclear Spin-Spin: Gn=   0.000
       EPRNMR Input: 
       rho(0)=Y f(grad)=Y a(iso)=N a(dip)=N a(orb)=N sigma(nmr)=N spin-spin(nmr)=all-N,DSO-N,PSO-N,FC-N,SD-N

-----------------------------------------
ELECTRIC AND MAGNETIC HYPERFINE STRUCTURE
-----------------------------------------

 -----------------------------------------------------------
 Nucleus   0Fe: A:ISTP=   57 I=  0.5 P= 17.2798 MHz/au**3
                Q:ISTP=   57 I=  0.5 Q=  0.1600 barn     
 -----------------------------------------------------------
 Raw EFG matrix (all values in a.u.**-3):
 -----------------------------------
             0.2051       0.0475       0.1617
             0.0475      -0.5417       0.1039
             0.1617       0.1039       0.3366

 V(El)       0.4247       0.6722      -1.0969
 V(Nuc)     -0.3279      -0.2141       0.5420
         ----------   ----------   ----------
 V(Tot)      0.0968       0.4581      -0.5550 
 Orientation: 
  X      -0.8342613    0.5499922   -0.0389445
  Y       0.0275502    0.1121255    0.9933121
  Z       0.5506805    0.8276089   -0.1086943

Note: Tensor is right-handed

Moessbauer quadrupole splitting parameter (proper coordinate system)
 e**2qQ  =   -20.863035 MHz =    -1.798538 mm/s
 eta     =     0.651064
 Delta-EQ=(1/2{e**2qQ}*sqrt(1+1/3*eta**2) =   -11.144136 MHz =    -0.960701 mm/s
 RHO(0)=  11821.892455723 a.u.**-3

 -----------------------------------------------------------
 Nucleus   1Fe: A:ISTP=   57 I=  0.5 P= 17.2798 MHz/au**3
                Q:ISTP=   57 I=  0.5 Q=  0.1600 barn     
 -----------------------------------------------------------
 Raw EFG matrix (all values in a.u.**-3):
 -----------------------------------
             0.0404      -0.1603      -0.2618
            -0.1603       0.0595       0.0606
            -0.2618       0.0606      -0.1000

 V(El)       0.2822      -1.0298       0.7476
 V(Nuc)     -0.3127       0.7213      -0.4086
         ----------   ----------   ----------
 V(Tot)     -0.0305      -0.3085       0.3390 
 Orientation: 
  X       0.3108581   -0.6371144   -0.7053032
  Y       0.8458407   -0.1530132    0.5110190
  Z      -0.4334983   -0.7554285    0.4913319

Note: Tensor is right-handed

Moessbauer quadrupole splitting parameter (proper coordinate system)
 e**2qQ  =    12.743205 MHz =     1.098552 mm/s
 eta     =     0.820297
 Delta-EQ=(1/2{e**2qQ}*sqrt(1+1/3*eta**2) =     7.050044 MHz =     0.607762 mm/s
 RHO(0)=  11821.955495631 a.u.**-3

 -----------------------------------------------------------
 Nucleus   2Fe: A:ISTP=   57 I=  0.5 P= 17.2798 MHz/au**3
                Q:ISTP=   57 I=  0.5 Q=  0.1600 barn     
 -----------------------------------------------------------
 Raw EFG matrix (all values in a.u.**-3):
 -----------------------------------
             0.3997      -0.1614       0.0804
            -0.1614      -0.3677      -0.1089
             0.0804      -0.1089      -0.0320

 V(El)       0.0277      -0.7435       0.7157
 V(Nuc)     -0.0591       0.3214      -0.2623
         ----------   ----------   ----------
 V(Tot)     -0.0314      -0.4221       0.4535 
 Orientation: 
  X      -0.2479708    0.1653953   -0.9545443
  Y      -0.1886388    0.9582145    0.2150357
  Z       0.9502241    0.2333867   -0.2064093

Note: Tensor is right-handed

Moessbauer quadrupole splitting parameter (proper coordinate system)
 e**2qQ  =    17.047346 MHz =     1.469599 mm/s
 eta     =     0.861634
 Delta-EQ=(1/2{e**2qQ}*sqrt(1+1/3*eta**2) =     9.520111 MHz =     0.820699 mm/s
 RHO(0)=  11821.831474737 a.u.**-3

 -----------------------------------------------------------
 Nucleus   3Fe: A:ISTP=   57 I=  0.5 P= 17.2798 MHz/au**3
                Q:ISTP=   57 I=  0.5 Q=  0.1600 barn     
 -----------------------------------------------------------
 Raw EFG matrix (all values in a.u.**-3):
 -----------------------------------
             0.1102      -0.2596       0.0870
            -0.2596      -0.3253       0.2435
             0.0870       0.2435       0.2151

 V(El)       0.5029       0.5220      -1.0249
 V(Nuc)     -0.2782      -0.2119       0.4900
         ----------   ----------   ----------
 V(Tot)      0.2248       0.3101      -0.5349 
 Orientation: 
  X       0.9125938   -0.1211569   -0.3905042
  Y      -0.3157227    0.3980389   -0.8613270
  Z       0.2597915    0.9093328    0.3249958

Note: Tensor is right-handed

Moessbauer quadrupole splitting parameter (proper coordinate system)
 e**2qQ  =   -20.108169 MHz =    -1.733463 mm/s
 eta     =     0.159512
 Delta-EQ=(1/2{e**2qQ}*sqrt(1+1/3*eta**2) =   -10.096631 MHz =    -0.870399 mm/s
 RHO(0)=  11822.049028714 a.u.**-3


--------------------------------------------------------------------------------

Maximum memory used throughout the entire EPRNMR-calculation: 1468.3 MB

Timings for individual modules:

Sum of individual times         ...    20082.429 sec (= 334.707 min)
GTO integral calculation        ...       19.131 sec (=   0.319 min)   0.1 %
SCF iterations                  ...    20024.408 sec (= 333.740 min)  99.7 %
EPR/NMR calculation             ...       38.891 sec (=   0.648 min)   0.2 %
                             ****ORCA TERMINATED NORMALLY****
TOTAL RUN TIME: 0 days 5 hours 34 minutes 50 seconds 189 msec
